 *******************************************************************************
 ** Site#: 34139        For non-commercial use only    Version 20.015L 64BITS **
 *******************************************************************************
 ** Cite this program as: MOPAC2016, Version: 20.015L, James J. P. Stewart,   **
 ** Stewart Computational Chemistry, web: HTTP://OpenMOPAC.net. Days left: 276**
 *******************************************************************************
 **                                                                           **
 **                                MOPAC2016                                  **
 **                                                                           **
 *******************************************************************************

                              PM7 CALCULATION RESULTS

 *******************************************************************************
 *  CALCULATION DONE:                                Tue Apr 14 21:12:34 2020  *
 *  PM7        - The PM7 Hamiltonian to be used
 *  QMMM       - Generate energies and gradients for use in MM codes
 *  DIPOLE     - PRINT DIPOLE INSTEAD OF ENERGY IN TRAJECTORIES
 *  GEO-OK     - OVERRIDE INTERATOMIC DISTANCE AND OTHER SAFETY CHECKS
 *
 *
 *
 *                 CHARGE ON SYSTEM = 0
 *
 *
 *
 *  LET        - OVERRIDE SOME SAFETY CHECKS
 *  XYZ        - CARTESIAN COORDINATE SYSTEM TO BE USED
 *  FORCE      - FORCE CALCULATION SPECIFIED
 *  1SCF       - DO 1 SCF AND THEN STOP 
 *  T=         - A TIME OF      2.0 MINUTES REQUESTED
 *  DUMP=N     - RESTART FILE WRITTEN EVERY  7200.000 SECONDS
 *  CUTOFF=    - CUTOFF FOR NDDO AND DIPOLE INTERACTIONS =  9.00A
 *  AUX        - OUTPUT AUXILIARY INFORMATION
 *  GRADIENTS  - ALL GRADIENTS TO BE PRINTED
 *  VECTORS    - FINAL EIGENVECTORS TO BE PRINTED
 *  EIGEN      - CONVERT LMO's INTO EIGENVECTORS
 *  LARGE      - EXPANDED OUTPUT TO BE PRINTED
 *  AIGOUT     - IN ARC FILE, INCLUDE AB-INITIO GEOMETRY
 *  GRAPH      - GENERATE FILE FOR GRAPHICS
 *  ALLVEC     - PRINT ALL EIGENVECTORS
 *  LOCALIZE   - LOCALIZED ORBITALS TO BE PRINTED
 *  PI         - BONDS MATRIX, SPLIT INTO SIGMA-PI-DELL COMPONENTS, TO BE PRINTED
 *******************************************************************************
PM7 XYZ T=2M 1SCF LOCALIZE AIGOUT GRAPH GRAPHF LARGE DIPOLE PI FORCE CUTOFF=9.0 AUX LET GRAD QMMM GEO-OK EIGEN VECTORS ALLVEC CHARGE=0
 Test System

   ATOM   CHEMICAL          X               Y               Z
  NUMBER   SYMBOL      (ANGSTROMS)     (ANGSTROMS)     (ANGSTROMS)
 
     1       C        -10.65743400  *   0.78244600  *   0.63489400  *
     2       O        -10.86492800  *  -0.17334400  *   1.41783900  *
     3       N         -9.36936700  *   1.02795300  *   0.15947400  *
     4       H         -9.26164700  *   1.81241100  *  -0.44701400  *
     5       C         -8.17458100  *   0.23716500  *   0.44981200  *
     6       H         -8.17054000  *  -0.19380200  *   1.49255500  *
     7       C         -8.12314700  *  -1.04229200  *  -0.50790100  *
     8       H         -7.25497800  *  -1.64416900  *  -0.23424900  *
     9       H         -8.96660600  *  -1.71130900  *  -0.00236100  *
    10       C         -8.39857500  *  -0.88767300  *  -1.93526200  *
    11       C         -9.43902500  *  -1.63520400  *  -2.49880000  *
    12       H        -10.08883700  *  -2.16841700  *  -1.82313800  *
    13       C         -9.54794500  *  -1.82235100  *  -3.84314500  *
    14       H        -10.22174600  *  -2.59940000  *  -4.26742800  *
    15       C         -8.80654300  *  -0.93010400  *  -4.64770300  *
    16       H         -8.96214800  *  -0.82538400  *  -5.71229200  *
    17       C         -7.52312400  *  -0.17049100  *  -2.77179800  *
    18       H         -6.61463700  *   0.39657800  *  -2.34955200  *
    19       C         -7.82101000  *  -0.05235000  *  -4.11998800  *
    20       H         -7.24175800  *   0.61156600  *  -4.72078300  *
    21       O        -10.12822000  *   1.84495100  *  -2.74243500  *
    22       H        -10.19507200  *   1.70627000  *  -3.75212200  *
    23       H         -9.46415400  *   2.50934700  *  -2.54933800  *
    24       O         -7.23290000  *  -3.24192000  *  -5.03073400  *
    25       H         -7.32548300  *  -2.66826100  *  -4.31568400  *
    26       H         -8.13521200  *  -3.38508300  *  -5.38014900  *
    27       O        -10.17606500  *   1.84822000  *  -5.34931200  *
    28       H         -9.51501200  *   1.30068800  *  -5.82272600  *
    29       H         -9.93063900  *   2.81675900  *  -5.46415100  *
    30       O        -13.15569400  *  -4.14967900  *  -5.10282200  *
    31       H        -13.12894800  *  -5.10762100  *  -5.16913200  *
    32       H        -13.47230100  *  -3.99057600  *  -4.15696700  *
    33       O        -11.34515700  *  -2.42194000  *  -6.31462200  *
    34       H        -11.70559000  *  -3.20568200  *  -5.76038800  *
    35       H        -11.02203500  *  -2.77543200  *  -7.20476100  *
    36       O         -5.24804900  *   0.57423800  *  -7.27328000  *
    37       H         -5.83700500  *  -0.19102000  *  -7.08939800  *
    38       H         -5.82567900  *   1.39362400  *  -7.25765300  *
    39       O        -12.72712900  *  -2.21938600  *   0.80685600  *
    40       H        -12.33125000  *  -3.15015100  *   1.05330900  *
    41       H        -11.89713100  *  -1.68607000  *   1.04625000  *
    42       O        -10.64446900  *  -2.26576800  *   3.10341300  *
    43       H        -11.17856500  *  -2.08091600  *   3.91312600  *
    44       H        -10.57028700  *  -1.42059500  *   2.81092800  *
    45       O         -7.06649100  *  -1.35069400  *  -7.13686700  *
    46       H         -6.90467600  *  -1.87269400  *  -8.01180000  *
    47       H         -6.98821200  *  -2.03800500  *  -6.43927900  *
    48       O         -9.80871300  *   3.82575700  *  -1.14840500  *
    49       H         -9.74120300  *   4.40710600  *  -2.00328400  *
    50       H         -9.44244800  *   4.50335400  *  -0.51893500  *
    51       O        -13.27212200  *  -0.49911100  *  -6.73505700  *
    52       H        -12.91727300  *   0.04893800  *  -7.47915500  *
    53       H        -12.57726300  *  -1.16310700  *  -6.55376400  *
    54       O         -8.88294400  *   0.61238100  *  -7.65865300  *
    55       H         -8.49339200  *   0.84133800  *  -8.52123800  *
    56       H         -8.44057700  *  -0.24284100  *  -7.41759100  *
    57       O        -11.42337500  *   0.43084600  *  -8.45042100  *
    58       H        -10.59547100  *   0.51257400  *  -7.85158300  *
    59       H        -11.02405600  *   0.05098700  *  -9.24817700  *
    60       O         -8.46979600  *  -4.77413600  *  -0.05909300  *
    61       H         -9.09926700  *  -4.76488500  *  -0.75746600  *
    62       H         -7.71774800  *  -5.27807200  *  -0.37949500  *
    63       O         -8.22388900  *   4.51778800  *   1.05027900  *
    64       H         -8.04248400  *   3.64466900  *   0.91532500  *
    65       H         -7.40692300  *   4.95283400  *   1.56578900  *
    66       O         -7.76644700  *   3.58876200  *  -2.90496600  *
    67       H         -7.19252500  *   3.30768600  *  -2.10719700  *
    68       H         -7.17121900  *   3.35307500  *  -3.63675400  *
    69       O        -12.97919600  *   1.04266600  *  -4.55574800  *
    70       H        -12.15191400  *   1.16794400  *  -4.91723800  *
    71       H        -13.50791400  *   0.52419800  *  -5.20732000  *
    72       H        -11.44165400  *   1.48147900  *   0.34428700  *
    73       H         -7.33788600  *   0.90992600  *   0.26157600  *
 


          CARTESIAN COORDINATES 

    NO.       ATOM           X           Y           Z

     1         C        -10.6574      0.7824      0.6349
     2         O        -10.8649     -0.1733      1.4178
     3         N         -9.3694      1.0280      0.1595
     4         H         -9.2616      1.8124     -0.4470
     5         C         -8.1746      0.2372      0.4498
     6         H         -8.1705     -0.1938      1.4926
     7         C         -8.1231     -1.0423     -0.5079
     8         H         -7.2550     -1.6442     -0.2342
     9         H         -8.9666     -1.7113     -0.0024
    10         C         -8.3986     -0.8877     -1.9353
    11         C         -9.4390     -1.6352     -2.4988
    12         H        -10.0888     -2.1684     -1.8231
    13         C         -9.5479     -1.8224     -3.8431
    14         H        -10.2217     -2.5994     -4.2674
    15         C         -8.8065     -0.9301     -4.6477
    16         H         -8.9621     -0.8254     -5.7123
    17         C         -7.5231     -0.1705     -2.7718
    18         H         -6.6146      0.3966     -2.3496
    19         C         -7.8210     -0.0524     -4.1200
    20         H         -7.2418      0.6116     -4.7208
    21         O        -10.1282      1.8450     -2.7424
    22         H        -10.1951      1.7063     -3.7521
    23         H         -9.4642      2.5093     -2.5493
    24         O         -7.2329     -3.2419     -5.0307
    25         H         -7.3255     -2.6683     -4.3157
    26         H         -8.1352     -3.3851     -5.3801
    27         O        -10.1761      1.8482     -5.3493
    28         H         -9.5150      1.3007     -5.8227
    29         H         -9.9306      2.8168     -5.4642
    30         O        -13.1557     -4.1497     -5.1028
    31         H        -13.1289     -5.1076     -5.1691
    32         H        -13.4723     -3.9906     -4.1570
    33         O        -11.3452     -2.4219     -6.3146
    34         H        -11.7056     -3.2057     -5.7604
    35         H        -11.0220     -2.7754     -7.2048
    36         O         -5.2480      0.5742     -7.2733
    37         H         -5.8370     -0.1910     -7.0894
    38         H         -5.8257      1.3936     -7.2577
    39         O        -12.7271     -2.2194      0.8069
    40         H        -12.3313     -3.1502      1.0533
    41         H        -11.8971     -1.6861      1.0462
    42         O        -10.6445     -2.2658      3.1034
    43         H        -11.1786     -2.0809      3.9131
    44         H        -10.5703     -1.4206      2.8109
    45         O         -7.0665     -1.3507     -7.1369
    46         H         -6.9047     -1.8727     -8.0118
    47         H         -6.9882     -2.0380     -6.4393
    48         O         -9.8087      3.8258     -1.1484
    49         H         -9.7412      4.4071     -2.0033
    50         H         -9.4424      4.5034     -0.5189
    51         O        -13.2721     -0.4991     -6.7351
    52         H        -12.9173      0.0489     -7.4792
    53         H        -12.5773     -1.1631     -6.5538
    54         O         -8.8829      0.6124     -7.6587
    55         H         -8.4934      0.8413     -8.5212
    56         H         -8.4406     -0.2428     -7.4176
    57         O        -11.4234      0.4308     -8.4504
    58         H        -10.5955      0.5126     -7.8516
    59         H        -11.0241      0.0510     -9.2482
    60         O         -8.4698     -4.7741     -0.0591
    61         H         -9.0993     -4.7649     -0.7575
    62         H         -7.7177     -5.2781     -0.3795
    63         O         -8.2239      4.5178      1.0503
    64         H         -8.0425      3.6447      0.9153
    65         H         -7.4069      4.9528      1.5658
    66         O         -7.7664      3.5888     -2.9050
    67         H         -7.1925      3.3077     -2.1072
    68         H         -7.1712      3.3531     -3.6368
    69         O        -12.9792      1.0427     -4.5557
    70         H        -12.1519      1.1679     -4.9172
    71         H        -13.5079      0.5242     -5.2073
    72         H        -11.4417      1.4815      0.3443
    73         H         -7.3379      0.9099      0.2616

 General Reference for PM7:
 "Optimization of Parameters for Semiempirical Methods VI: More Modifications to the 
 NDDO Approximations and Re-optimization of Parameters", J. J. P. Stewart, J. Mol. Mod., 1:32, 19 (2013)
 http://www.springerlink.com/openurl.asp?genre=article&id=doi:10.1007/s00894-012-1667-x

           Empirical Formula: C9 H45 N O18  =    73 atoms



      MOLECULAR POINT GROUP   :   C1  


      RHF CALCULATION, NO. OF DOUBLY OCCUPIED LEVELS = 97


 -------------------------------------------------------------------------------
 PM7 XYZ T=2M 1SCF LOCALIZE AIGOUT GRAPH GRAPHF LARGE DIPOLE PI FORCE CUTOFF=9.0 AUX LET GRAD QMMM GEO-OK EIGEN VECTORS ALLVEC CHARGE=0
 Test System



     1SCF WAS SPECIFIED, SO BFGS WAS NOT USED                 
     SCF FIELD WAS ACHIEVED                                   


                              PM7 CALCULATION
                                                       MOPAC2016 (Version: 20.015L)
                                                       Tue Apr 14 21:12:34 2020
                                                       No. of days remaining = 276




          FINAL HEAT OF FORMATION =      -1292.39062 KCAL/MOL =   -5407.36237 KJ/MOL


          TOTAL ENERGY            =      -7230.30576 EV
          ELECTRONIC ENERGY       =     -59463.32670 EV  POINT GROUP:     C1  
          CORE-CORE REPULSION     =      52233.02094 EV
          COSMO AREA              =        503.99 SQUARE ANGSTROMS
          COSMO VOLUME            =        661.39 CUBIC ANGSTROMS

          GRADIENT NORM           =        286.41644 = 33.52251 PER ATOM
          IONIZATION POTENTIAL    =          8.293603 EV
          HOMO LUMO ENERGIES (EV) =         -8.294  0.890
          NO. OF FILLED LEVELS    =         97
          MOLECULAR WEIGHT        =        455.4504

          MOLECULAR DIMENSIONS (Angstroms)

            Atom       Atom       Distance
            H    65    H    31    13.39080
            H    43    O    36    12.89002
            H    71    H    62     9.11324


          SCF CALCULATIONS        =          1
 
          WALL-CLOCK TIME         =          0.219 SECONDS
          COMPUTATION TIME        =          0.208 SECONDS

          LARGEST ATOMIC GRADIENTS

          Atom     Label                     Cartesian Gradients           Cartesian Coordinates       |Gradient|
                                           X          Y          Z        X          Y          Z

             7       C                  40.011      1.489    -64.751   -8.12315   -1.04229   -0.50790     76.130
            39       O                 -54.283     35.790    -19.989  -12.72713   -2.21939    0.80686     68.023
            63       O                 -42.457    -45.254    -25.187   -8.22389    4.51779    1.05028     66.969
            48       O                 -21.701    -53.732     13.742   -9.80871    3.82576   -1.14841     59.556
             3       N                  43.238      0.004    -33.849   -9.36937    1.02795    0.15947     54.912
             1       C                 -40.765     33.250    -11.214  -10.65743    0.78245    0.63489     53.788
            13       C                  -2.259    -20.138     48.339   -9.54795   -1.82235   -3.84315     52.415
            65       H                  42.525     17.649     23.977   -7.40692    4.95283    1.56579     51.911
            44       H                 -11.066    -35.675     35.565  -10.57029   -1.42060    2.81093     51.575
            66       O                 -38.923     14.144    -23.288   -7.76645    3.58876   -2.90497     47.512



       FINAL  POINT  AND  DERIVATIVES

   PARAMETER     ATOM    TYPE            VALUE        GRADIENT
      1          1  C    CARTESIAN X   -10.657434    -40.765413  KCAL/ANGSTROM
      2          1  C    CARTESIAN Y     0.782446     33.249653  KCAL/ANGSTROM
      3          1  C    CARTESIAN Z     0.634894    -11.214338  KCAL/ANGSTROM
      4          2  O    CARTESIAN X   -10.864928    -11.053493  KCAL/ANGSTROM
      5          2  O    CARTESIAN Y    -0.173344    -31.857835  KCAL/ANGSTROM
      6          2  O    CARTESIAN Z     1.417839     24.089467  KCAL/ANGSTROM
      7          3  N    CARTESIAN X    -9.369367     43.238192  KCAL/ANGSTROM
      8          3  N    CARTESIAN Y     1.027953      0.003985  KCAL/ANGSTROM
      9          3  N    CARTESIAN Z     0.159474    -33.848793  KCAL/ANGSTROM
     10          4  H    CARTESIAN X    -9.261647      8.955064  KCAL/ANGSTROM
     11          4  H    CARTESIAN Y     1.812411     -6.253223  KCAL/ANGSTROM
     12          4  H    CARTESIAN Z    -0.447014     17.210248  KCAL/ANGSTROM
     13          5  C    CARTESIAN X    -8.174581     13.646318  KCAL/ANGSTROM
     14          5  C    CARTESIAN Y     0.237165     29.778273  KCAL/ANGSTROM
     15          5  C    CARTESIAN Z     0.449812     23.180487  KCAL/ANGSTROM
     16          6  H    CARTESIAN X    -8.170540      4.362108  KCAL/ANGSTROM
     17          6  H    CARTESIAN Y    -0.193802     -9.708011  KCAL/ANGSTROM
     18          6  H    CARTESIAN Z     1.492555      4.743104  KCAL/ANGSTROM
     19          7  C    CARTESIAN X    -8.123147     40.011177  KCAL/ANGSTROM
     20          7  C    CARTESIAN Y    -1.042292      1.489274  KCAL/ANGSTROM
     21          7  C    CARTESIAN Z    -0.507901    -64.750938  KCAL/ANGSTROM
     22          8  H    CARTESIAN X    -7.254978    -11.165276  KCAL/ANGSTROM
     23          8  H    CARTESIAN Y    -1.644169      0.343740  KCAL/ANGSTROM
     24          8  H    CARTESIAN Z    -0.234249      8.986242  KCAL/ANGSTROM
     25          9  H    CARTESIAN X    -8.966606    -19.297761  KCAL/ANGSTROM
     26          9  H    CARTESIAN Y    -1.711309    -14.267895  KCAL/ANGSTROM
     27          9  H    CARTESIAN Z    -0.002361     19.049800  KCAL/ANGSTROM
     28         10  C    CARTESIAN X    -8.398575    -27.737075  KCAL/ANGSTROM
     29         10  C    CARTESIAN Y    -0.887673     -8.772167  KCAL/ANGSTROM
     30         10  C    CARTESIAN Z    -1.935262     13.389151  KCAL/ANGSTROM
     31         11  C    CARTESIAN X    -9.439025    -10.910704  KCAL/ANGSTROM
     32         11  C    CARTESIAN Y    -1.635204     13.990455  KCAL/ANGSTROM
     33         11  C    CARTESIAN Z    -2.498800    -36.037294  KCAL/ANGSTROM
     34         12  H    CARTESIAN X   -10.088837     10.191316  KCAL/ANGSTROM
     35         12  H    CARTESIAN Y    -2.168417      3.603058  KCAL/ANGSTROM
     36         12  H    CARTESIAN Z    -1.823138     -4.780108  KCAL/ANGSTROM
     37         13  C    CARTESIAN X    -9.547945     -2.258684  KCAL/ANGSTROM
     38         13  C    CARTESIAN Y    -1.822351    -20.138011  KCAL/ANGSTROM
     39         13  C    CARTESIAN Z    -3.843145     48.339059  KCAL/ANGSTROM
     40         14  H    CARTESIAN X   -10.221746     -5.652536  KCAL/ANGSTROM
     41         14  H    CARTESIAN Y    -2.599400    -17.431335  KCAL/ANGSTROM
     42         14  H    CARTESIAN Z    -4.267428     -2.124765  KCAL/ANGSTROM
     43         15  C    CARTESIAN X    -8.806543    -15.254888  KCAL/ANGSTROM
     44         15  C    CARTESIAN Y    -0.930104    -15.108451  KCAL/ANGSTROM
     45         15  C    CARTESIAN Z    -4.647703      0.333167  KCAL/ANGSTROM
     46         16  H    CARTESIAN X    -8.962148      9.152720  KCAL/ANGSTROM
     47         16  H    CARTESIAN Y    -0.825384     10.197450  KCAL/ANGSTROM
     48         16  H    CARTESIAN Z    -5.712292      2.914081  KCAL/ANGSTROM
     49         17  C    CARTESIAN X    -7.523124     -9.250998  KCAL/ANGSTROM
     50         17  C    CARTESIAN Y    -0.170491    -22.399194  KCAL/ANGSTROM
     51         17  C    CARTESIAN Z    -2.771798    -27.650781  KCAL/ANGSTROM
     52         18  H    CARTESIAN X    -6.614637     29.813404  KCAL/ANGSTROM
     53         18  H    CARTESIAN Y     0.396578     19.998087  KCAL/ANGSTROM
     54         18  H    CARTESIAN Z    -2.349552      9.512120  KCAL/ANGSTROM
     55         19  C    CARTESIAN X    -7.821010     18.661058  KCAL/ANGSTROM
     56         19  C    CARTESIAN Y    -0.052350     37.665976  KCAL/ANGSTROM
     57         19  C    CARTESIAN Z    -4.119988     -4.806861  KCAL/ANGSTROM
     58         20  H    CARTESIAN X    -7.241758      0.058001  KCAL/ANGSTROM
     59         20  H    CARTESIAN Y     0.611566     -3.960867  KCAL/ANGSTROM
     60         20  H    CARTESIAN Z    -4.720783     12.284185  KCAL/ANGSTROM
     61         21  O    CARTESIAN X   -10.128220     -9.049128  KCAL/ANGSTROM
     62         21  O    CARTESIAN Y     1.844951      6.938924  KCAL/ANGSTROM
     63         21  O    CARTESIAN Z    -2.742435     23.439178  KCAL/ANGSTROM
     64         22  H    CARTESIAN X   -10.195072      0.455077  KCAL/ANGSTROM
     65         22  H    CARTESIAN Y     1.706270     -3.378434  KCAL/ANGSTROM
     66         22  H    CARTESIAN Z    -3.752122    -36.537307  KCAL/ANGSTROM
     67         23  H    CARTESIAN X    -9.464154      7.403432  KCAL/ANGSTROM
     68         23  H    CARTESIAN Y     2.509347      3.831630  KCAL/ANGSTROM
     69         23  H    CARTESIAN Z    -2.549338      4.931244  KCAL/ANGSTROM
     70         24  O    CARTESIAN X    -7.232900      7.423316  KCAL/ANGSTROM
     71         24  O    CARTESIAN Y    -3.241920     10.491063  KCAL/ANGSTROM
     72         24  O    CARTESIAN Z    -5.030734     38.037795  KCAL/ANGSTROM
     73         25  H    CARTESIAN X    -7.325483     -1.082778  KCAL/ANGSTROM
     74         25  H    CARTESIAN Y    -2.668261    -15.482278  KCAL/ANGSTROM
     75         25  H    CARTESIAN Z    -4.315684    -24.508023  KCAL/ANGSTROM
     76         26  H    CARTESIAN X    -8.135212     -5.950817  KCAL/ANGSTROM
     77         26  H    CARTESIAN Y    -3.385083      0.937061  KCAL/ANGSTROM
     78         26  H    CARTESIAN Z    -5.380149     -7.612353  KCAL/ANGSTROM
     79         27  O    CARTESIAN X   -10.176065    -17.085491  KCAL/ANGSTROM
     80         27  O    CARTESIAN Y     1.848220    -19.047561  KCAL/ANGSTROM
     81         27  O    CARTESIAN Z    -5.349312     17.992807  KCAL/ANGSTROM
     82         28  H    CARTESIAN X    -9.515012     10.379630  KCAL/ANGSTROM
     83         28  H    CARTESIAN Y     1.300688     -9.769125  KCAL/ANGSTROM
     84         28  H    CARTESIAN Z    -5.822726     -5.909192  KCAL/ANGSTROM
     85         29  H    CARTESIAN X    -9.930639      7.419037  KCAL/ANGSTROM
     86         29  H    CARTESIAN Y     2.816759     27.709766  KCAL/ANGSTROM
     87         29  H    CARTESIAN Z    -5.464151     -0.796735  KCAL/ANGSTROM
     88         30  O    CARTESIAN X   -13.155694     -3.064680  KCAL/ANGSTROM
     89         30  O    CARTESIAN Y    -4.149679      7.668671  KCAL/ANGSTROM
     90         30  O    CARTESIAN Z    -5.102822    -26.300116  KCAL/ANGSTROM
     91         31  H    CARTESIAN X   -13.128948      0.698427  KCAL/ANGSTROM
     92         31  H    CARTESIAN Y    -5.107621     -3.790657  KCAL/ANGSTROM
     93         31  H    CARTESIAN Z    -5.169132      5.056887  KCAL/ANGSTROM
     94         32  H    CARTESIAN X   -13.472301     -6.344188  KCAL/ANGSTROM
     95         32  H    CARTESIAN Y    -3.990576     -6.387476  KCAL/ANGSTROM
     96         32  H    CARTESIAN Z    -4.156967     23.603727  KCAL/ANGSTROM
     97         33  O    CARTESIAN X   -11.345157      1.047886  KCAL/ANGSTROM
     98         33  O    CARTESIAN Y    -2.421940     24.517095  KCAL/ANGSTROM
     99         33  O    CARTESIAN Z    -6.314622     10.468178  KCAL/ANGSTROM
    100         34  H    CARTESIAN X   -11.705590     -1.890693  KCAL/ANGSTROM
    101         34  H    CARTESIAN Y    -3.205682    -27.175095  KCAL/ANGSTROM
    102         34  H    CARTESIAN Z    -5.760388     26.256147  KCAL/ANGSTROM
    103         35  H    CARTESIAN X   -11.022035     19.534092  KCAL/ANGSTROM
    104         35  H    CARTESIAN Y    -2.775432     -5.917716  KCAL/ANGSTROM
    105         35  H    CARTESIAN Z    -7.204761    -34.529532  KCAL/ANGSTROM
    106         36  O    CARTESIAN X    -5.248049     22.952980  KCAL/ANGSTROM
    107         36  O    CARTESIAN Y     0.574238    -21.254655  KCAL/ANGSTROM
    108         36  O    CARTESIAN Z    -7.273280     -4.138088  KCAL/ANGSTROM
    109         37  H    CARTESIAN X    -5.837005     -6.131484  KCAL/ANGSTROM
    110         37  H    CARTESIAN Y    -0.191020     -7.574824  KCAL/ANGSTROM
    111         37  H    CARTESIAN Z    -7.089398      3.489284  KCAL/ANGSTROM
    112         38  H    CARTESIAN X    -5.825679    -18.874526  KCAL/ANGSTROM
    113         38  H    CARTESIAN Y     1.393624     25.420967  KCAL/ANGSTROM
    114         38  H    CARTESIAN Z    -7.257653      0.703276  KCAL/ANGSTROM
    115         39  O    CARTESIAN X   -12.727129    -54.283173  KCAL/ANGSTROM
    116         39  O    CARTESIAN Y    -2.219386     35.790108  KCAL/ANGSTROM
    117         39  O    CARTESIAN Z     0.806856    -19.989161  KCAL/ANGSTROM
    118         40  H    CARTESIAN X   -12.331250     24.579827  KCAL/ANGSTROM
    119         40  H    CARTESIAN Y    -3.150151    -37.322829  KCAL/ANGSTROM
    120         40  H    CARTESIAN Z     1.053309      9.651278  KCAL/ANGSTROM
    121         41  H    CARTESIAN X   -11.897131     29.230817  KCAL/ANGSTROM
    122         41  H    CARTESIAN Y    -1.686070     -2.582059  KCAL/ANGSTROM
    123         41  H    CARTESIAN Z     1.046250      7.982824  KCAL/ANGSTROM
    124         42  O    CARTESIAN X   -10.644469     15.256164  KCAL/ANGSTROM
    125         42  O    CARTESIAN Y    -2.265768     20.875152  KCAL/ANGSTROM
    126         42  O    CARTESIAN Z     3.103413    -37.067878  KCAL/ANGSTROM
    127         43  H    CARTESIAN X   -11.178565     -3.537284  KCAL/ANGSTROM
    128         43  H    CARTESIAN Y    -2.080916     16.211081  KCAL/ANGSTROM
    129         43  H    CARTESIAN Z     3.913126      6.481437  KCAL/ANGSTROM
    130         44  H    CARTESIAN X   -10.570287    -11.065648  KCAL/ANGSTROM
    131         44  H    CARTESIAN Y    -1.420595    -35.675248  KCAL/ANGSTROM
    132         44  H    CARTESIAN Z     2.810928     35.564645  KCAL/ANGSTROM
    133         45  O    CARTESIAN X    -7.066491      8.497229  KCAL/ANGSTROM
    134         45  O    CARTESIAN Y    -1.350694     24.913876  KCAL/ANGSTROM
    135         45  O    CARTESIAN Z    -7.136867     33.011273  KCAL/ANGSTROM
    136         46  H    CARTESIAN X    -6.904676      2.184308  KCAL/ANGSTROM
    137         46  H    CARTESIAN Y    -1.872694    -18.963319  KCAL/ANGSTROM
    138         46  H    CARTESIAN Z    -8.011800    -32.236999  KCAL/ANGSTROM
    139         47  H    CARTESIAN X    -6.988212     -1.739535  KCAL/ANGSTROM
    140         47  H    CARTESIAN Y    -2.038005     -4.048105  KCAL/ANGSTROM
    141         47  H    CARTESIAN Z    -6.439279     -4.109723  KCAL/ANGSTROM
    142         48  O    CARTESIAN X    -9.808713    -21.701203  KCAL/ANGSTROM
    143         48  O    CARTESIAN Y     3.825757    -53.732427  KCAL/ANGSTROM
    144         48  O    CARTESIAN Z    -1.148405     13.741928  KCAL/ANGSTROM
    145         49  H    CARTESIAN X    -9.741203      7.276407  KCAL/ANGSTROM
    146         49  H    CARTESIAN Y     4.407106     30.709598  KCAL/ANGSTROM
    147         49  H    CARTESIAN Z    -2.003284    -25.815459  KCAL/ANGSTROM
    148         50  H    CARTESIAN X    -9.442448      7.113263  KCAL/ANGSTROM
    149         50  H    CARTESIAN Y     4.503354     18.789376  KCAL/ANGSTROM
    150         50  H    CARTESIAN Z    -0.518935      0.945933  KCAL/ANGSTROM
    151         51  O    CARTESIAN X   -13.272122    -15.156884  KCAL/ANGSTROM
    152         51  O    CARTESIAN Y    -0.499111      2.921660  KCAL/ANGSTROM
    153         51  O    CARTESIAN Z    -6.735057     12.786513  KCAL/ANGSTROM
    154         52  H    CARTESIAN X   -12.917273      1.606517  KCAL/ANGSTROM
    155         52  H    CARTESIAN Y     0.048938     13.084308  KCAL/ANGSTROM
    156         52  H    CARTESIAN Z    -7.479155    -16.382176  KCAL/ANGSTROM
    157         53  H    CARTESIAN X   -12.577263      4.506721  KCAL/ANGSTROM
    158         53  H    CARTESIAN Y    -1.163107     -2.140202  KCAL/ANGSTROM
    159         53  H    CARTESIAN Z    -6.553764     -1.355557  KCAL/ANGSTROM
    160         54  O    CARTESIAN X    -8.882944    -18.415647  KCAL/ANGSTROM
    161         54  O    CARTESIAN Y     0.612381     17.169185  KCAL/ANGSTROM
    162         54  O    CARTESIAN Z    -7.658653      4.706331  KCAL/ANGSTROM
    163         55  H    CARTESIAN X    -8.493392      4.541585  KCAL/ANGSTROM
    164         55  H    CARTESIAN Y     0.841338     -1.804393  KCAL/ANGSTROM
    165         55  H    CARTESIAN Z    -8.521238     -8.280968  KCAL/ANGSTROM
    166         56  H    CARTESIAN X    -8.440577      1.087289  KCAL/ANGSTROM
    167         56  H    CARTESIAN Y    -0.242841     -9.497516  KCAL/ANGSTROM
    168         56  H    CARTESIAN Z    -7.417591     -2.261390  KCAL/ANGSTROM
    169         57  O    CARTESIAN X   -11.423375    -32.011536  KCAL/ANGSTROM
    170         57  O    CARTESIAN Y     0.430846      3.277837  KCAL/ANGSTROM
    171         57  O    CARTESIAN Z    -8.450421     -0.906697  KCAL/ANGSTROM
    172         58  H    CARTESIAN X   -10.595471     22.655843  KCAL/ANGSTROM
    173         58  H    CARTESIAN Y     0.512574     -2.185699  KCAL/ANGSTROM
    174         58  H    CARTESIAN Z    -7.851583     11.660366  KCAL/ANGSTROM
    175         59  H    CARTESIAN X   -11.024056     13.019407  KCAL/ANGSTROM
    176         59  H    CARTESIAN Y     0.050987     -3.720195  KCAL/ANGSTROM
    177         59  H    CARTESIAN Z    -9.248177     -6.760639  KCAL/ANGSTROM
    178         60  O    CARTESIAN X    -8.469796     -9.589226  KCAL/ANGSTROM
    179         60  O    CARTESIAN Y    -4.774136      2.922374  KCAL/ANGSTROM
    180         60  O    CARTESIAN Z    -0.059093      3.181526  KCAL/ANGSTROM
    181         61  H    CARTESIAN X    -9.099267      7.988966  KCAL/ANGSTROM
    182         61  H    CARTESIAN Y    -4.764885     -2.436607  KCAL/ANGSTROM
    183         61  H    CARTESIAN Z    -0.757466      3.600819  KCAL/ANGSTROM
    184         62  H    CARTESIAN X    -7.717748      1.132705  KCAL/ANGSTROM
    185         62  H    CARTESIAN Y    -5.278072     -1.410764  KCAL/ANGSTROM
    186         62  H    CARTESIAN Z    -0.379495     -5.485134  KCAL/ANGSTROM
    187         63  O    CARTESIAN X    -8.223889    -42.457088  KCAL/ANGSTROM
    188         63  O    CARTESIAN Y     4.517788    -45.253546  KCAL/ANGSTROM
    189         63  O    CARTESIAN Z     1.050279    -25.186663  KCAL/ANGSTROM
    190         64  H    CARTESIAN X    -8.042484      2.013205  KCAL/ANGSTROM
    191         64  H    CARTESIAN Y     3.644669     27.400068  KCAL/ANGSTROM
    192         64  H    CARTESIAN Z     0.915325      3.446930  KCAL/ANGSTROM
    193         65  H    CARTESIAN X    -7.406923     42.524717  KCAL/ANGSTROM
    194         65  H    CARTESIAN Y     4.952834     17.649026  KCAL/ANGSTROM
    195         65  H    CARTESIAN Z     1.565789     23.977262  KCAL/ANGSTROM
    196         66  O    CARTESIAN X    -7.766447    -38.923251  KCAL/ANGSTROM
    197         66  O    CARTESIAN Y     3.588762     14.144213  KCAL/ANGSTROM
    198         66  O    CARTESIAN Z    -2.904966    -23.287559  KCAL/ANGSTROM
    199         67  H    CARTESIAN X    -7.192525     28.566764  KCAL/ANGSTROM
    200         67  H    CARTESIAN Y     3.307686    -13.891363  KCAL/ANGSTROM
    201         67  H    CARTESIAN Z    -2.107197     22.462316  KCAL/ANGSTROM
    202         68  H    CARTESIAN X    -7.171219     10.464148  KCAL/ANGSTROM
    203         68  H    CARTESIAN Y     3.353075     -2.755893  KCAL/ANGSTROM
    204         68  H    CARTESIAN Z    -3.636754      2.161330  KCAL/ANGSTROM
    205         69  O    CARTESIAN X   -12.979196     39.670256  KCAL/ANGSTROM
    206         69  O    CARTESIAN Y     1.042666      8.204763  KCAL/ANGSTROM
    207         69  O    CARTESIAN Z    -4.555748      0.210810  KCAL/ANGSTROM
    208         70  H    CARTESIAN X   -12.151914    -24.216366  KCAL/ANGSTROM
    209         70  H    CARTESIAN Y     1.167944     -2.370454  KCAL/ANGSTROM
    210         70  H    CARTESIAN Z    -4.917238      7.533679  KCAL/ANGSTROM
    211         71  H    CARTESIAN X   -13.507914    -15.870190  KCAL/ANGSTROM
    212         71  H    CARTESIAN Y     0.524198     -4.906498  KCAL/ANGSTROM
    213         71  H    CARTESIAN Z    -5.207320     -7.073691  KCAL/ANGSTROM
    214         72  H    CARTESIAN X   -11.441654     -1.711412  KCAL/ANGSTROM
    215         72  H    CARTESIAN Y     1.481479      4.303842  KCAL/ANGSTROM
    216         72  H    CARTESIAN Z     0.344287      0.877842  KCAL/ANGSTROM
    217         73  H    CARTESIAN X    -7.337886    -15.818115  KCAL/ANGSTROM
    218         73  H    CARTESIAN Y     0.909926     -1.827394  KCAL/ANGSTROM
    219         73  H    CARTESIAN Z     0.261576     -0.246671  KCAL/ANGSTROM




   ATOM   CHEMICAL          X               Y               Z
  NUMBER   SYMBOL      (ANGSTROMS)     (ANGSTROMS)     (ANGSTROMS)
 
     1       C        -10.65743400  *   0.78244600  *   0.63489400  *
     2       O        -10.86492800  *  -0.17334400  *   1.41783900  *
     3       N         -9.36936700  *   1.02795300  *   0.15947400  *
     4       H         -9.26164700  *   1.81241100  *  -0.44701400  *
     5       C         -8.17458100  *   0.23716500  *   0.44981200  *
     6       H         -8.17054000  *  -0.19380200  *   1.49255500  *
     7       C         -8.12314700  *  -1.04229200  *  -0.50790100  *
     8       H         -7.25497800  *  -1.64416900  *  -0.23424900  *
     9       H         -8.96660600  *  -1.71130900  *  -0.00236100  *
    10       C         -8.39857500  *  -0.88767300  *  -1.93526200  *
    11       C         -9.43902500  *  -1.63520400  *  -2.49880000  *
    12       H        -10.08883700  *  -2.16841700  *  -1.82313800  *
    13       C         -9.54794500  *  -1.82235100  *  -3.84314500  *
    14       H        -10.22174600  *  -2.59940000  *  -4.26742800  *
    15       C         -8.80654300  *  -0.93010400  *  -4.64770300  *
    16       H         -8.96214800  *  -0.82538400  *  -5.71229200  *
    17       C         -7.52312400  *  -0.17049100  *  -2.77179800  *
    18       H         -6.61463700  *   0.39657800  *  -2.34955200  *
    19       C         -7.82101000  *  -0.05235000  *  -4.11998800  *
    20       H         -7.24175800  *   0.61156600  *  -4.72078300  *
    21       O        -10.12822000  *   1.84495100  *  -2.74243500  *
    22       H        -10.19507200  *   1.70627000  *  -3.75212200  *
    23       H         -9.46415400  *   2.50934700  *  -2.54933800  *
    24       O         -7.23290000  *  -3.24192000  *  -5.03073400  *
    25       H         -7.32548300  *  -2.66826100  *  -4.31568400  *
    26       H         -8.13521200  *  -3.38508300  *  -5.38014900  *
    27       O        -10.17606500  *   1.84822000  *  -5.34931200  *
    28       H         -9.51501200  *   1.30068800  *  -5.82272600  *
    29       H         -9.93063900  *   2.81675900  *  -5.46415100  *
    30       O        -13.15569400  *  -4.14967900  *  -5.10282200  *
    31       H        -13.12894800  *  -5.10762100  *  -5.16913200  *
    32       H        -13.47230100  *  -3.99057600  *  -4.15696700  *
    33       O        -11.34515700  *  -2.42194000  *  -6.31462200  *
    34       H        -11.70559000  *  -3.20568200  *  -5.76038800  *
    35       H        -11.02203500  *  -2.77543200  *  -7.20476100  *
    36       O         -5.24804900  *   0.57423800  *  -7.27328000  *
    37       H         -5.83700500  *  -0.19102000  *  -7.08939800  *
    38       H         -5.82567900  *   1.39362400  *  -7.25765300  *
    39       O        -12.72712900  *  -2.21938600  *   0.80685600  *
    40       H        -12.33125000  *  -3.15015100  *   1.05330900  *
    41       H        -11.89713100  *  -1.68607000  *   1.04625000  *
    42       O        -10.64446900  *  -2.26576800  *   3.10341300  *
    43       H        -11.17856500  *  -2.08091600  *   3.91312600  *
    44       H        -10.57028700  *  -1.42059500  *   2.81092800  *
    45       O         -7.06649100  *  -1.35069400  *  -7.13686700  *
    46       H         -6.90467600  *  -1.87269400  *  -8.01180000  *
    47       H         -6.98821200  *  -2.03800500  *  -6.43927900  *
    48       O         -9.80871300  *   3.82575700  *  -1.14840500  *
    49       H         -9.74120300  *   4.40710600  *  -2.00328400  *
    50       H         -9.44244800  *   4.50335400  *  -0.51893500  *
    51       O        -13.27212200  *  -0.49911100  *  -6.73505700  *
    52       H        -12.91727300  *   0.04893800  *  -7.47915500  *
    53       H        -12.57726300  *  -1.16310700  *  -6.55376400  *
    54       O         -8.88294400  *   0.61238100  *  -7.65865300  *
    55       H         -8.49339200  *   0.84133800  *  -8.52123800  *
    56       H         -8.44057700  *  -0.24284100  *  -7.41759100  *
    57       O        -11.42337500  *   0.43084600  *  -8.45042100  *
    58       H        -10.59547100  *   0.51257400  *  -7.85158300  *
    59       H        -11.02405600  *   0.05098700  *  -9.24817700  *
    60       O         -8.46979600  *  -4.77413600  *  -0.05909300  *
    61       H         -9.09926700  *  -4.76488500  *  -0.75746600  *
    62       H         -7.71774800  *  -5.27807200  *  -0.37949500  *
    63       O         -8.22388900  *   4.51778800  *   1.05027900  *
    64       H         -8.04248400  *   3.64466900  *   0.91532500  *
    65       H         -7.40692300  *   4.95283400  *   1.56578900  *
    66       O         -7.76644700  *   3.58876200  *  -2.90496600  *
    67       H         -7.19252500  *   3.30768600  *  -2.10719700  *
    68       H         -7.17121900  *   3.35307500  *  -3.63675400  *
    69       O        -12.97919600  *   1.04266600  *  -4.55574800  *
    70       H        -12.15191400  *   1.16794400  *  -4.91723800  *
    71       H        -13.50791400  *   0.52419800  *  -5.20732000  *
    72       H        -11.44165400  *   1.48147900  *   0.34428700  *
    73       H         -7.33788600  *   0.90992600  *   0.26157600  *

                             CARTESIAN COORDINATES

   1    C      -10.657434000     0.782446000     0.634894000
   2    O      -10.864928000    -0.173344000     1.417839000
   3    N       -9.369367000     1.027953000     0.159474000
   4    H       -9.261647000     1.812411000    -0.447014000
   5    C       -8.174581000     0.237165000     0.449812000
   6    H       -8.170540000    -0.193802000     1.492555000
   7    C       -8.123147000    -1.042292000    -0.507901000
   8    H       -7.254978000    -1.644169000    -0.234249000
   9    H       -8.966606000    -1.711309000    -0.002361000
  10    C       -8.398575000    -0.887673000    -1.935262000
  11    C       -9.439025000    -1.635204000    -2.498800000
  12    H      -10.088837000    -2.168417000    -1.823138000
  13    C       -9.547945000    -1.822351000    -3.843145000
  14    H      -10.221746000    -2.599400000    -4.267428000
  15    C       -8.806543000    -0.930104000    -4.647703000
  16    H       -8.962148000    -0.825384000    -5.712292000
  17    C       -7.523124000    -0.170491000    -2.771798000
  18    H       -6.614637000     0.396578000    -2.349552000
  19    C       -7.821010000    -0.052350000    -4.119988000
  20    H       -7.241758000     0.611566000    -4.720783000
  21    O      -10.128220000     1.844951000    -2.742435000
  22    H      -10.195072000     1.706270000    -3.752122000
  23    H       -9.464154000     2.509347000    -2.549338000
  24    O       -7.232900000    -3.241920000    -5.030734000
  25    H       -7.325483000    -2.668261000    -4.315684000
  26    H       -8.135212000    -3.385083000    -5.380149000
  27    O      -10.176065000     1.848220000    -5.349312000
  28    H       -9.515012000     1.300688000    -5.822726000
  29    H       -9.930639000     2.816759000    -5.464151000
  30    O      -13.155694000    -4.149679000    -5.102822000
  31    H      -13.128948000    -5.107621000    -5.169132000
  32    H      -13.472301000    -3.990576000    -4.156967000
  33    O      -11.345157000    -2.421940000    -6.314622000
  34    H      -11.705590000    -3.205682000    -5.760388000
  35    H      -11.022035000    -2.775432000    -7.204761000
  36    O       -5.248049000     0.574238000    -7.273280000
  37    H       -5.837005000    -0.191020000    -7.089398000
  38    H       -5.825679000     1.393624000    -7.257653000
  39    O      -12.727129000    -2.219386000     0.806856000
  40    H      -12.331250000    -3.150151000     1.053309000
  41    H      -11.897131000    -1.686070000     1.046250000
  42    O      -10.644469000    -2.265768000     3.103413000
  43    H      -11.178565000    -2.080916000     3.913126000
  44    H      -10.570287000    -1.420595000     2.810928000
  45    O       -7.066491000    -1.350694000    -7.136867000
  46    H       -6.904676000    -1.872694000    -8.011800000
  47    H       -6.988212000    -2.038005000    -6.439279000
  48    O       -9.808713000     3.825757000    -1.148405000
  49    H       -9.741203000     4.407106000    -2.003284000
  50    H       -9.442448000     4.503354000    -0.518935000
  51    O      -13.272122000    -0.499111000    -6.735057000
  52    H      -12.917273000     0.048938000    -7.479155000
  53    H      -12.577263000    -1.163107000    -6.553764000
  54    O       -8.882944000     0.612381000    -7.658653000
  55    H       -8.493392000     0.841338000    -8.521238000
  56    H       -8.440577000    -0.242841000    -7.417591000
  57    O      -11.423375000     0.430846000    -8.450421000
  58    H      -10.595471000     0.512574000    -7.851583000
  59    H      -11.024056000     0.050987000    -9.248177000
  60    O       -8.469796000    -4.774136000    -0.059093000
  61    H       -9.099267000    -4.764885000    -0.757466000
  62    H       -7.717748000    -5.278072000    -0.379495000
  63    O       -8.223889000     4.517788000     1.050279000
  64    H       -8.042484000     3.644669000     0.915325000
  65    H       -7.406923000     4.952834000     1.565789000
  66    O       -7.766447000     3.588762000    -2.904966000
  67    H       -7.192525000     3.307686000    -2.107197000
  68    H       -7.171219000     3.353075000    -3.636754000
  69    O      -12.979196000     1.042666000    -4.555748000
  70    H      -12.151914000     1.167944000    -4.917238000
  71    H      -13.507914000     0.524198000    -5.207320000
  72    H      -11.441654000     1.481479000     0.344287000
  73    H       -7.337886000     0.909926000     0.261576000


           Empirical Formula: C9 H45 N O18  =    73 atoms



      MOLECULAR POINT GROUP   :   C1  


                EIGENVECTORS  


   Root No.       1         2         3         4         5         6         7         8

                 1 A       2 A       3 A       4 A       5 A       6 A       7 A       8 A   

               -35.328   -30.526   -30.081   -29.588   -29.528   -29.422   -29.290   -29.058
  
  S   C    1    0.2981   -0.0115    0.0061   -0.0109    0.0156    0.0260   -0.0086   -0.0125
  Px  C    1    0.1905   -0.0042    0.0019   -0.0026    0.0036    0.0054   -0.0015   -0.0016
  Py  C    1    0.0272   -0.0011    0.0006    0.0001   -0.0002   -0.0006    0.0010    0.0011
  Pz  C    1   -0.0603    0.0002    0.0000   -0.0008    0.0012    0.0023   -0.0012   -0.0018
  S   O    2    0.0551   -0.0047    0.0027   -0.0068    0.0101    0.0175   -0.0070   -0.0104
  Px  O    2    0.0426   -0.0012    0.0006   -0.0010    0.0015    0.0024   -0.0009   -0.0011
  Py  O    2    0.0505   -0.0033    0.0018   -0.0037    0.0054    0.0091   -0.0032   -0.0048
  Pz  O    2   -0.0481    0.0022   -0.0012    0.0026   -0.0038   -0.0064    0.0024    0.0035
  S   N    3    0.8212   -0.0163    0.0075   -0.0108    0.0149    0.0232   -0.0067   -0.0082
  Px  N    3   -0.0235    0.0063   -0.0037    0.0062   -0.0089   -0.0151    0.0044    0.0072
  Py  N    3   -0.0087   -0.0036    0.0023   -0.0030    0.0043    0.0076   -0.0014   -0.0035
  Pz  N    3    0.0161   -0.0031    0.0015   -0.0027    0.0038    0.0060   -0.0022   -0.0025
  S   H    4    0.2629   -0.0038    0.0021   -0.0022    0.0031    0.0054   -0.0005   -0.0023
  S   C    5    0.2386    0.0116   -0.0075    0.0120   -0.0173   -0.0298    0.0076    0.0145
  Px  C    5   -0.1365    0.0038   -0.0019    0.0029   -0.0040   -0.0064    0.0020    0.0025
  Py  C    5    0.0892   -0.0085    0.0047   -0.0069    0.0097    0.0159   -0.0041   -0.0067
  Pz  C    5   -0.0344   -0.0085    0.0046   -0.0068    0.0097    0.0160   -0.0043   -0.0069
  S   H    6    0.0719    0.0035   -0.0024    0.0039   -0.0056   -0.0098    0.0024    0.0048
  S   C    7    0.0692    0.0580   -0.0318    0.0455   -0.0639   -0.1057    0.0269    0.0452
  Px  C    7   -0.0203   -0.0061    0.0032   -0.0044    0.0059    0.0096   -0.0023   -0.0038
  Py  C    7    0.0419   -0.0005    0.0002    0.0004   -0.0008   -0.0018    0.0008    0.0012
  Pz  C    7    0.0169   -0.0343    0.0171   -0.0226    0.0315    0.0509   -0.0129   -0.0199
  S   H    8    0.0179    0.0217   -0.0120    0.0171   -0.0240   -0.0398    0.0101    0.0171
  S   H    9    0.0326    0.0223   -0.0123    0.0176   -0.0245   -0.0405    0.0101    0.0173
  S   C   10    0.0328    0.1808   -0.0880    0.1150   -0.1597   -0.2582    0.0653    0.1002
  Px  C   10   -0.0018   -0.0075    0.0037   -0.0049    0.0057    0.0086   -0.0017   -0.0026
  Py  C   10    0.0089   -0.0111    0.0063   -0.0060    0.0074    0.0109   -0.0009   -0.0037
  Pz  C   10    0.0195   -0.0614    0.0255   -0.0288    0.0393    0.0614   -0.0153   -0.0197
  S   C   11    0.0111    0.1925   -0.0912    0.1127   -0.1511   -0.2401    0.0574    0.0877
  Px  C   11    0.0034    0.0491   -0.0232    0.0267   -0.0383   -0.0608    0.0144    0.0225
  Py  C   11    0.0045    0.0229   -0.0099    0.0156   -0.0229   -0.0381    0.0114    0.0150
  Pz  C   11    0.0063   -0.0510    0.0199   -0.0193    0.0238    0.0349   -0.0070   -0.0081
  S   H   12    0.0066    0.0571   -0.0283    0.0364   -0.0480   -0.0769    0.0183    0.0291
  S   C   13    0.0022    0.2160   -0.0900    0.0994   -0.1260   -0.1942    0.0430    0.0603
  Px  C   13    0.0008    0.0617   -0.0256    0.0197   -0.0305   -0.0448    0.0078    0.0122
  Py  C   13    0.0011    0.0400   -0.0133    0.0220   -0.0335   -0.0560    0.0178    0.0195
  Pz  C   13    0.0018    0.0174   -0.0156    0.0229   -0.0330   -0.0536    0.0132    0.0236
  S   H   14    0.0004    0.0683   -0.0274    0.0325   -0.0301   -0.0463    0.0091    0.0132
  S   C   15    0.0016    0.2313   -0.0687    0.0821   -0.1128   -0.1842    0.0523    0.0507
  Px  C   15    0.0003    0.0219   -0.0077    0.0016   -0.0055   -0.0101    0.0029    0.0049
  Py  C   15    0.0002   -0.0199    0.0156   -0.0007   -0.0022   -0.0111    0.0118    0.0055
  Pz  C   15    0.0014    0.0562   -0.0398    0.0403   -0.0535   -0.0773    0.0144    0.0298
  S   H   16    0.0003    0.0940    0.0009    0.0156   -0.0239   -0.0539    0.0239    0.0060
  S   C   17    0.0127    0.1698   -0.0749    0.0961   -0.1351   -0.2191    0.0592    0.0824
  Px  C   17   -0.0045   -0.0530    0.0235   -0.0308    0.0425    0.0682   -0.0178   -0.0245
  Py  C   17   -0.0004   -0.0373    0.0182   -0.0195    0.0269    0.0420   -0.0086   -0.0152
  Pz  C   17    0.0083   -0.0325    0.0085   -0.0084    0.0120    0.0195   -0.0069   -0.0044
  S   H   18    0.0070    0.0427   -0.0191    0.0255   -0.0362   -0.0594    0.0167    0.0233
  S   C   19    0.0030    0.1956   -0.0658    0.0854   -0.1215   -0.2015    0.0618    0.0690
  Px  C   19   -0.0007   -0.0353    0.0107   -0.0164    0.0222    0.0348   -0.0098   -0.0078
  Py  C   19   -0.0002   -0.0570    0.0236   -0.0206    0.0283    0.0433   -0.0078   -0.0130
  Pz  C   19    0.0026    0.0274   -0.0226    0.0264   -0.0359   -0.0539    0.0104    0.0218
  S   H   20    0.0008    0.0636   -0.0141    0.0226   -0.0336   -0.0611    0.0247    0.0235
  S   O   21    0.0128    0.0218    0.0083    0.0285   -0.0347   -0.0195    0.0524   -0.0175
  Px  O   21    0.0055    0.0042    0.0003    0.0041   -0.0054   -0.0057    0.0066   -0.0011
  Py  O   21    0.0027    0.0008    0.0013    0.0021   -0.0026   -0.0009    0.0050   -0.0024
  Pz  O   21    0.0059   -0.0070   -0.0031   -0.0085    0.0100    0.0041   -0.0153    0.0055
  S   H   22    0.0030    0.0172    0.0075    0.0195   -0.0232   -0.0110    0.0348   -0.0124
  S   H   23    0.0149    0.0098    0.0026    0.0116   -0.0144   -0.0101    0.0205   -0.0058
  S   O   24    0.0004    0.5623   -0.2877   -0.0649    0.0937    0.3665   -0.2656   -0.2642
  Px  O   24   -0.0001   -0.1261    0.0640    0.0115   -0.0176   -0.0757    0.0575    0.0578
  Py  O   24    0.0001    0.0850   -0.0379   -0.0094    0.0124    0.0413   -0.0262   -0.0228
  Pz  O   24    0.0001    0.0585   -0.0358    0.0037   -0.0034    0.0260   -0.0339   -0.0372
  S   H   25    0.0005    0.2555   -0.1266   -0.0167    0.0248    0.1272   -0.1018   -0.0992
  S   H   26    0.0002    0.2143   -0.1042   -0.0233    0.0342    0.1275   -0.0895   -0.0872
  S   O   27    0.0009    0.0688    0.0803    0.0629   -0.0812   -0.0487    0.1321   -0.0837
  Px  O   27    0.0002    0.0175    0.0173    0.0070   -0.0122   -0.0209    0.0162   -0.0126
  Py  O   27    0.0001   -0.0015    0.0005    0.0013   -0.0021   -0.0021    0.0054   -0.0047
  Pz  O   27    0.0003   -0.0086   -0.0129   -0.0040    0.0063    0.0068   -0.0070    0.0071
  S   H   28    0.0004    0.0414    0.0442    0.0236   -0.0326   -0.0293    0.0491   -0.0328
  S   H   29    0.0005    0.0230    0.0270    0.0212   -0.0274   -0.0168    0.0444   -0.0282
  S   O   30    0.0000    0.0116    0.0070    0.5954    0.6020   -0.1066   -0.0395   -0.0166
  Px  O   30    0.0000    0.0007    0.0001   -0.0237   -0.0282    0.0065    0.0030    0.0018
  Py  O   30    0.0000   -0.0014   -0.0009   -0.1158   -0.1209    0.0229    0.0090    0.0042
  Pz  O   30    0.0000    0.0015    0.0008    0.0984    0.1018   -0.0191   -0.0073   -0.0034
  S   H   31    0.0000    0.0045    0.0026    0.2297    0.2327   -0.0414   -0.0154   -0.0065
  S   H   32    0.0000    0.0040    0.0022    0.1971    0.1992   -0.0355   -0.0130   -0.0055
  S   O   33    0.0000    0.0316    0.0255    0.1728    0.0331    0.0573    0.0363    0.0353
  Px  O   33   -0.0000    0.0015   -0.0037   -0.0113    0.0017   -0.0092   -0.0048   -0.0022
  Py  O   33   -0.0000   -0.0061   -0.0003   -0.0339   -0.0185   -0.0015   -0.0026   -0.0051
  Pz  O   33    0.0000   -0.0001   -0.0054   -0.0095    0.0025   -0.0096   -0.0028   -0.0036
  S   H   34    0.0000    0.0142    0.0068    0.0786    0.0298    0.0136    0.0113    0.0114
  S   H   35    0.0000    0.0131    0.0113    0.0609    0.0104    0.0215    0.0115    0.0131
  S   O   36    0.0000    0.0874    0.0714   -0.1395    0.1646    0.0446    0.2421    0.4425
  Px  O   36   -0.0000   -0.0272   -0.0220    0.0393   -0.0459   -0.0117   -0.0660   -0.1165
  Py  O   36   -0.0000   -0.0065   -0.0020    0.0055   -0.0064   -0.0036   -0.0055   -0.0079
  Pz  O   36    0.0000    0.0053    0.0034   -0.0070    0.0082    0.0023    0.0119    0.0213
  S   H   37    0.0000    0.0514    0.0349   -0.0659    0.0770    0.0233    0.1038    0.1796
  S   H   38    0.0000    0.0316    0.0279   -0.0482    0.0562    0.0128    0.0834    0.1483
  S   O   39    0.0009    0.0011   -0.0007    0.0011   -0.0013   -0.0022    0.0004    0.0008
  Px  O   39    0.0004    0.0005   -0.0003    0.0004   -0.0005   -0.0008    0.0001    0.0003
  Py  O   39   -0.0000   -0.0000    0.0000   -0.0001    0.0001    0.0001   -0.0000   -0.0001
  Pz  O   39    0.0000    0.0001   -0.0001    0.0001   -0.0001   -0.0002    0.0000    0.0001
  S   H   40    0.0004    0.0005   -0.0003    0.0005   -0.0005   -0.0010    0.0002    0.0004
  S   H   41    0.0014    0.0007   -0.0004    0.0006   -0.0007   -0.0011    0.0001    0.0003
  S   O   42    0.0009    0.0007   -0.0005    0.0009   -0.0012   -0.0021    0.0004    0.0010
  Px  O   42    0.0002   -0.0000    0.0000   -0.0001    0.0001    0.0001   -0.0000   -0.0001
  Py  O   42    0.0002    0.0003   -0.0002    0.0003   -0.0004   -0.0008    0.0002    0.0004
  Pz  O   42    0.0001   -0.0001    0.0000   -0.0000    0.0000    0.0001   -0.0000   -0.0000
  S   H   43    0.0002    0.0002   -0.0002    0.0003   -0.0004   -0.0007    0.0001    0.0004
  S   H   44    0.0012    0.0005   -0.0003    0.0005   -0.0007   -0.0012    0.0002    0.0006
  S   O   45    0.0001    0.2802    0.0846   -0.2465    0.2901    0.1720    0.2527    0.3792
  Px  O   45   -0.0000    0.0049   -0.0119   -0.0116    0.0162    0.0189    0.0165    0.0473
  Py  O   45   -0.0000   -0.0628    0.0062    0.0478   -0.0590   -0.0528   -0.0413   -0.0802
  Pz  O   45    0.0000    0.0108   -0.0151    0.0053   -0.0053    0.0054   -0.0098   -0.0063
  S   H   46    0.0000    0.0916    0.0312   -0.0822    0.0965    0.0556    0.0844    0.1247
  S   H   47    0.0001    0.1372    0.0087   -0.0890    0.1060    0.0798    0.0765    0.1254
  S   O   48    0.0119    0.0021    0.0010    0.0036   -0.0046   -0.0031    0.0077   -0.0027
  Px  O   48    0.0033    0.0003    0.0001    0.0005   -0.0006   -0.0004    0.0010   -0.0003
  Py  O   48   -0.0070    0.0003    0.0000    0.0005   -0.0007   -0.0006    0.0010   -0.0003
  Pz  O   48    0.0032   -0.0008   -0.0002   -0.0010    0.0013    0.0010   -0.0018    0.0005
  S   H   49    0.0034    0.0014    0.0005    0.0020   -0.0026   -0.0018    0.0040   -0.0013
  S   H   50    0.0068    0.0006    0.0003    0.0011   -0.0014   -0.0009    0.0025   -0.0009
  S   O   51    0.0000    0.0327    0.1246    0.2724   -0.1784    0.3020    0.1530    0.0750
  Px  O   51    0.0000    0.0087    0.0313    0.0651   -0.0412    0.0698    0.0322    0.0195
  Py  O   51    0.0000   -0.0001    0.0012   -0.0022   -0.0030    0.0010    0.0041   -0.0050
  Pz  O   51    0.0000   -0.0038   -0.0160   -0.0234    0.0158   -0.0245    0.0035   -0.0182
  S   H   52    0.0000    0.0160    0.0607    0.1065   -0.0735    0.1162    0.0423    0.0362
  S   H   53    0.0000    0.0147    0.0495    0.1101   -0.0651    0.1144    0.0581    0.0288
  S   O   54    0.0001    0.2610    0.5996   -0.1790    0.1340   -0.2399    0.1109   -0.4042
  Px  O   54    0.0000    0.0403    0.0787   -0.0438    0.0380   -0.0476    0.0441   -0.0781
  Py  O   54   -0.0000   -0.0408   -0.0761    0.0259   -0.0208    0.0296   -0.0185    0.0430
  Pz  O   54    0.0000   -0.0311   -0.0899    0.0257   -0.0195    0.0308   -0.0055    0.0579
  S   H   55    0.0000    0.0973    0.2277   -0.0671    0.0504   -0.0872    0.0379   -0.1462
  S   H   56    0.0000    0.1136    0.2154   -0.0729    0.0584   -0.0828    0.0555   -0.1230
  S   O   57    0.0000    0.1196    0.4619    0.2091   -0.2369    0.1658   -0.4792    0.3141
  Px  O   57    0.0000    0.0334    0.1196    0.0385   -0.0495    0.0248   -0.1204    0.0665
  Py  O   57   -0.0000   -0.0092   -0.0366   -0.0195    0.0205   -0.0165    0.0372   -0.0268
  Pz  O   57    0.0000   -0.0047   -0.0253   -0.0093    0.0139   -0.0066    0.0457   -0.0282
  S   H   58    0.0000    0.0558    0.1872    0.0634   -0.0744    0.0436   -0.1495    0.0820
  S   H   59    0.0000    0.0491    0.1865    0.0792   -0.0911    0.0613   -0.1911    0.1214
  S   O   60    0.0005    0.0052   -0.0034    0.0052   -0.0072   -0.0123    0.0028    0.0067
  Px  O   60   -0.0001   -0.0003    0.0001   -0.0002    0.0002    0.0003   -0.0001   -0.0001
  Py  O   60    0.0001   -0.0002    0.0002   -0.0003    0.0004    0.0007   -0.0002   -0.0005
  Pz  O   60   -0.0002   -0.0017    0.0010   -0.0015    0.0021    0.0035   -0.0008   -0.0019
  S   H   61    0.0004    0.0033   -0.0019    0.0028   -0.0038   -0.0063    0.0014    0.0032
  S   H   62    0.0002    0.0020   -0.0013    0.0020   -0.0027   -0.0046    0.0010    0.0025
  S   O   63    0.0088    0.0000    0.0002    0.0003   -0.0004   -0.0003    0.0010   -0.0003
  Px  O   63    0.0011   -0.0000    0.0000    0.0000   -0.0000   -0.0000    0.0001   -0.0000
  Py  O   63   -0.0048    0.0000   -0.0001   -0.0001    0.0001    0.0000   -0.0003    0.0001
  Pz  O   63   -0.0009   -0.0000   -0.0000   -0.0001    0.0001    0.0001   -0.0001    0.0000
  S   H   64    0.0119   -0.0000    0.0001    0.0002   -0.0002   -0.0001    0.0006   -0.0002
  S   H   65    0.0021    0.0000    0.0000    0.0001   -0.0001   -0.0001    0.0002   -0.0001
  S   O   66    0.0038    0.0078   -0.0004    0.0084   -0.0117   -0.0152    0.0144    0.0019
  Px  O   66    0.0002    0.0017   -0.0004    0.0015   -0.0022   -0.0036    0.0023    0.0011
  Py  O   66   -0.0013   -0.0017    0.0001   -0.0016    0.0022    0.0026   -0.0025   -0.0002
  Pz  O   66    0.0013   -0.0003   -0.0001   -0.0001    0.0001    0.0003   -0.0002   -0.0001
  S   H   67    0.0039    0.0035   -0.0005    0.0035   -0.0049   -0.0065    0.0055    0.0010
  S   H   68    0.0014    0.0043   -0.0003    0.0038   -0.0053   -0.0072    0.0062    0.0012
  S   O   69    0.0002    0.0229    0.0675    0.2560   -0.2136    0.3385    0.4915   -0.2026
  Px  O   69    0.0001    0.0035    0.0078    0.0286   -0.0246    0.0362    0.0571   -0.0246
  Py  O   69    0.0000   -0.0018   -0.0059   -0.0211    0.0169   -0.0277   -0.0368    0.0137
  Pz  O   69   -0.0000   -0.0060   -0.0178   -0.0638    0.0527   -0.0834   -0.1175    0.0467
  S   H   70    0.0002    0.0121    0.0310    0.1099   -0.0921    0.1407    0.2067   -0.0844
  S   H   71    0.0001    0.0095    0.0291    0.1018   -0.0827    0.1322    0.1796   -0.0683
  S   H   72    0.0872   -0.0040    0.0022   -0.0038    0.0055    0.0093   -0.0028   -0.0046
  S   H   73    0.0840    0.0059   -0.0035    0.0056   -0.0081   -0.0138    0.0037    0.0065


   Root No.       9        10        11        12        13        14        15        16

                 9 A      10 A      11 A      12 A      13 A      14 A      15 A      16 A   

               -28.762   -28.601   -28.537   -28.380   -28.286   -28.155   -27.918   -27.898
  
  S   C    1    0.0019    0.0024    0.0104    0.3748   -0.0069   -0.0031   -0.1114    0.0608
  Px  C    1   -0.0005    0.0010   -0.0010   -0.0897    0.0011    0.0022    0.0205   -0.0183
  Py  C    1   -0.0027    0.0033   -0.0043   -0.2353    0.0032    0.0041    0.0538   -0.0347
  Pz  C    1    0.0019   -0.0018    0.0040    0.2046   -0.0029   -0.0034   -0.0488    0.0323
  S   O    2    0.0056   -0.0035    0.0154    0.7239   -0.0108   -0.0108   -0.1473    0.1014
  Px  O    2    0.0005   -0.0003    0.0010    0.0376   -0.0006   -0.0004   -0.0122    0.0054
  Py  O    2    0.0014    0.0001    0.0052    0.2125   -0.0039   -0.0023   -0.0861    0.0460
  Pz  O    2   -0.0014    0.0005   -0.0041   -0.1765    0.0029    0.0021    0.0669   -0.0361
  S   N    3   -0.0012    0.0042    0.0004   -0.1236    0.0006    0.0045    0.0251   -0.0285
  Px  N    3    0.0012   -0.0047   -0.0040   -0.0916    0.0024   -0.0007    0.0342   -0.0175
  Py  N    3   -0.0033    0.0062    0.0003   -0.0499   -0.0001    0.0018    0.0116   -0.0009
  Pz  N    3    0.0012   -0.0008    0.0018    0.0588   -0.0009   -0.0003   -0.0175    0.0057
  S   H    4   -0.0036    0.0060   -0.0006   -0.0741    0.0005    0.0017    0.0210   -0.0041
  S   C    5    0.0060   -0.0149   -0.0062   -0.0704    0.0040   -0.0033    0.0316   -0.0231
  Px  C    5    0.0001   -0.0010   -0.0007    0.0068    0.0002   -0.0010   -0.0001    0.0045
  Py  C    5   -0.0027    0.0064    0.0017   -0.0308   -0.0011    0.0023    0.0053   -0.0029
  Pz  C    5   -0.0020    0.0053    0.0025    0.0235   -0.0006    0.0014   -0.0064    0.0040
  S   H    6    0.0024   -0.0056   -0.0019   -0.0097    0.0017   -0.0014    0.0110   -0.0078
  S   C    7    0.0164   -0.0399   -0.0146   -0.0258    0.0068   -0.0108    0.0198   -0.0169
  Px  C    7   -0.0017    0.0034    0.0011   -0.0023   -0.0005    0.0003    0.0000    0.0017
  Py  C    7   -0.0001   -0.0006   -0.0008   -0.0162   -0.0019   -0.0005    0.0056   -0.0031
  Pz  C    7   -0.0062    0.0148    0.0054   -0.0036    0.0020    0.0040    0.0034   -0.0008
  S   H    8    0.0063   -0.0154   -0.0055   -0.0090    0.0047   -0.0043    0.0081   -0.0064
  S   H    9    0.0068   -0.0159   -0.0055   -0.0018    0.0062   -0.0039    0.0086   -0.0075
  S   C   10    0.0319   -0.0749   -0.0278   -0.0024   -0.0048   -0.0194    0.0025   -0.0108
  Px  C   10   -0.0025    0.0028    0.0007   -0.0050   -0.0008   -0.0021    0.0030    0.0024
  Py  C   10   -0.0042    0.0067    0.0006   -0.0057   -0.0022   -0.0009    0.0026    0.0036
  Pz  C   10   -0.0044    0.0090    0.0037   -0.0153    0.0070    0.0020    0.0106   -0.0049
  S   C   11    0.0342   -0.0664   -0.0219    0.0177   -0.0041   -0.0058   -0.0110   -0.0108
  Px  C   11    0.0064   -0.0172   -0.0057    0.0009   -0.0026   -0.0066   -0.0009   -0.0017
  Py  C   11    0.0021   -0.0083   -0.0049   -0.0003   -0.0035   -0.0049   -0.0001   -0.0002
  Pz  C   11   -0.0046    0.0028    0.0003   -0.0088    0.0059   -0.0049    0.0080   -0.0010
  S   H   12    0.0124   -0.0236   -0.0075    0.0061    0.0038   -0.0011   -0.0018   -0.0050
  S   C   13    0.0303   -0.0399   -0.0122    0.0234   -0.0101    0.0121   -0.0182   -0.0070
  Px  C   13    0.0022   -0.0106   -0.0019    0.0042   -0.0032   -0.0077   -0.0036   -0.0006
  Py  C   13    0.0007   -0.0076   -0.0069    0.0050   -0.0040   -0.0072   -0.0041   -0.0005
  Pz  C   13    0.0070   -0.0208   -0.0059    0.0029    0.0003   -0.0070   -0.0011   -0.0020
  S   H   14    0.0167   -0.0054   -0.0010    0.0073   -0.0023    0.0232   -0.0054   -0.0023
  S   C   15    0.0095   -0.0108   -0.0161    0.0229   -0.0138   -0.0010   -0.0191   -0.0034
  Px  C   15   -0.0024   -0.0016   -0.0012    0.0004   -0.0016   -0.0067   -0.0000    0.0025
  Py  C   15   -0.0097    0.0119   -0.0034   -0.0003   -0.0006   -0.0059    0.0006    0.0017
  Pz  C   15    0.0101   -0.0241   -0.0026    0.0065   -0.0043   -0.0039   -0.0044    0.0006
  S   H   16   -0.0006    0.0122   -0.0101    0.0079   -0.0043    0.0031   -0.0073   -0.0029
  S   C   17    0.0173   -0.0467   -0.0205    0.0060   -0.0120   -0.0188   -0.0023    0.0075
  Px  C   17   -0.0064    0.0150    0.0069   -0.0033    0.0030    0.0040    0.0030    0.0027
  Py  C   17   -0.0073    0.0150    0.0040   -0.0025    0.0012    0.0024    0.0030    0.0061
  Pz  C   17    0.0033   -0.0062   -0.0006   -0.0099    0.0041    0.0007    0.0064   -0.0046
  S   H   18    0.0040   -0.0123   -0.0057   -0.0017   -0.0031   -0.0061    0.0033    0.0075
  S   C   19    0.0028   -0.0150   -0.0155    0.0184   -0.0150   -0.0148   -0.0121    0.0088
  Px  C   19   -0.0002   -0.0005    0.0045   -0.0043    0.0020   -0.0002    0.0043    0.0035
  Py  C   19   -0.0080    0.0140    0.0046   -0.0051    0.0031    0.0012    0.0054    0.0043
  Pz  C   19    0.0090   -0.0215   -0.0052    0.0007   -0.0027   -0.0049    0.0007    0.0032
  S   H   20   -0.0053    0.0053   -0.0007    0.0058   -0.0049   -0.0055   -0.0024    0.0073
  S   O   21   -0.1221    0.1778   -0.0010   -0.0225    0.0027   -0.0062    0.0683    0.1464
  Px  O   21   -0.0167    0.0264   -0.0003   -0.0058    0.0003   -0.0015    0.0146    0.0310
  Py  O   21   -0.0148    0.0231    0.0000   -0.0047    0.0004   -0.0010    0.0135    0.0290
  Pz  O   21    0.0312   -0.0424    0.0001   -0.0009   -0.0007    0.0009   -0.0061   -0.0146
  S   H   22   -0.0728    0.1015   -0.0002   -0.0046    0.0016   -0.0027    0.0183    0.0393
  S   H   23   -0.0481    0.0715   -0.0006   -0.0138    0.0010   -0.0031    0.0378    0.0814
  S   O   24   -0.0213    0.0194    0.1683   -0.0207    0.0081   -0.0124    0.0111    0.0026
  Px  O   24    0.0035   -0.0041   -0.0376    0.0040   -0.0015    0.0011   -0.0020   -0.0004
  Py  O   24   -0.0025    0.0014    0.0092   -0.0014    0.0004   -0.0020    0.0006    0.0002
  Pz  O   24   -0.0008   -0.0005    0.0349   -0.0018    0.0006   -0.0023    0.0006    0.0002
  S   H   25   -0.0064    0.0038    0.0654   -0.0059    0.0021   -0.0055    0.0026    0.0007
  S   H   26   -0.0061    0.0073    0.0509   -0.0063    0.0025   -0.0012    0.0032    0.0006
  S   O   27   -0.4144    0.6809    0.0109    0.0196    0.0158   -0.0291   -0.0530   -0.1351
  Px  O   27   -0.0758    0.1432    0.0025    0.0043    0.0030   -0.0088   -0.0110   -0.0273
  Py  O   27   -0.0287    0.0533    0.0011    0.0009    0.0015   -0.0032   -0.0031   -0.0091
  Pz  O   27    0.0383   -0.0694   -0.0015   -0.0035   -0.0016    0.0038    0.0104    0.0248
  S   H   28   -0.1489    0.2479    0.0044    0.0081    0.0051   -0.0110   -0.0203   -0.0495
  S   H   29   -0.1415    0.2334    0.0038    0.0063    0.0054   -0.0102   -0.0164   -0.0424
  S   O   30   -0.0881   -0.0451   -0.0033   -0.0019    0.0003   -0.1018   -0.0010   -0.0004
  Px  O   30    0.0139    0.0084    0.0007    0.0004   -0.0001    0.0275    0.0003    0.0002
  Py  O   30    0.0255    0.0140    0.0011    0.0006   -0.0001    0.0365    0.0004    0.0002
  Pz  O   30   -0.0206   -0.0113   -0.0009   -0.0005    0.0001   -0.0299   -0.0003   -0.0002
  S   H   31   -0.0349   -0.0180   -0.0013   -0.0008    0.0001   -0.0410   -0.0004   -0.0002
  S   H   32   -0.0299   -0.0156   -0.0012   -0.0006    0.0001   -0.0364   -0.0004   -0.0002
  S   O   33    0.3310    0.2169    0.0168    0.0093   -0.0025    0.7573    0.0104    0.0051
  Px  O   33   -0.0165   -0.0077   -0.0007    0.0004   -0.0002    0.0088   -0.0001   -0.0000
  Py  O   33   -0.0557   -0.0397   -0.0032   -0.0024    0.0007   -0.1815   -0.0024   -0.0012
  Pz  O   33   -0.0305   -0.0200   -0.0014   -0.0004    0.0001   -0.0604   -0.0012   -0.0006
  S   H   34    0.1076    0.0701    0.0056    0.0034   -0.0009    0.2498    0.0032    0.0016
  S   H   35    0.1171    0.0769    0.0057    0.0033   -0.0009    0.2671    0.0037    0.0018
  S   O   36   -0.0629   -0.0249    0.6608   -0.0093    0.0022    0.0032   -0.0000   -0.0029
  Px  O   36    0.0159    0.0063   -0.1652    0.0023   -0.0005   -0.0007   -0.0000    0.0006
  Py  O   36    0.0003   -0.0004    0.0148   -0.0003    0.0000   -0.0000    0.0001    0.0001
  Pz  O   36   -0.0030   -0.0010    0.0276   -0.0003    0.0001    0.0001   -0.0000   -0.0001
  S   H   37   -0.0231   -0.0081    0.2078   -0.0027    0.0007    0.0011   -0.0001   -0.0009
  S   H   38   -0.0208   -0.0085    0.2284   -0.0032    0.0007    0.0009    0.0001   -0.0007
  S   O   39    0.0018   -0.0032    0.0018    0.1654    0.0032   -0.0055    0.2522   -0.0892
  Px  O   39    0.0005   -0.0010    0.0005    0.0478    0.0009   -0.0016    0.0681   -0.0240
  Py  O   39   -0.0000    0.0001   -0.0000   -0.0047   -0.0004    0.0002   -0.0144    0.0053
  Pz  O   39    0.0002   -0.0003    0.0002    0.0176    0.0003   -0.0006    0.0275   -0.0098
  S   H   40    0.0006   -0.0012    0.0006    0.0558    0.0015   -0.0019    0.0881   -0.0314
  S   H   41    0.0009   -0.0016    0.0010    0.0839    0.0011   -0.0025    0.1032   -0.0358
  S   O   42    0.0017   -0.0038    0.0014    0.1795    0.0022   -0.0087    0.7085   -0.2802
  Px  O   42   -0.0001    0.0003   -0.0001   -0.0161   -0.0002    0.0008   -0.0637    0.0252
  Py  O   42    0.0005   -0.0011    0.0004    0.0509    0.0006   -0.0025    0.1965   -0.0776
  Pz  O   42    0.0001   -0.0002    0.0001    0.0119    0.0001   -0.0006    0.0537   -0.0214
  S   H   43    0.0006   -0.0013    0.0005    0.0645    0.0008   -0.0031    0.2537   -0.1003
  S   H   44    0.0009   -0.0020    0.0008    0.0900    0.0010   -0.0041    0.3148   -0.1238
  S   O   45   -0.0242    0.0181   -0.5439    0.0097   -0.0009    0.0025   -0.0005   -0.0008
  Px  O   45   -0.0083    0.0010   -0.0039    0.0001    0.0001    0.0005    0.0001   -0.0003
  Py  O   45    0.0081   -0.0071    0.1581   -0.0026    0.0002   -0.0010    0.0001    0.0003
  Pz  O   45   -0.0021    0.0017    0.0092    0.0000   -0.0001   -0.0001   -0.0003   -0.0001
  S   H   46   -0.0073    0.0053   -0.1756    0.0030   -0.0002    0.0010   -0.0000   -0.0002
  S   H   47   -0.0108    0.0085   -0.1910    0.0031   -0.0003    0.0007   -0.0002   -0.0003
  S   O   48   -0.0248    0.0414   -0.0004   -0.0275    0.0007   -0.0028    0.0768    0.1608
  Px  O   48   -0.0029    0.0048   -0.0001   -0.0041    0.0001   -0.0003    0.0092    0.0187
  Py  O   48   -0.0037    0.0066   -0.0001   -0.0027    0.0001   -0.0006    0.0168    0.0373
  Pz  O   48    0.0043   -0.0066    0.0000   -0.0002   -0.0001    0.0004   -0.0043   -0.0108
  S   H   49   -0.0118    0.0192   -0.0002   -0.0095    0.0003   -0.0012    0.0304    0.0653
  S   H   50   -0.0085    0.0145   -0.0002   -0.0115    0.0003   -0.0010    0.0304    0.0632
  S   O   51    0.5315    0.2422    0.0190   -0.0096    0.0043   -0.4048   -0.0035   -0.0025
  Px  O   51    0.1256    0.0591    0.0045   -0.0021    0.0010   -0.0839   -0.0007   -0.0005
  Py  O   51   -0.0262   -0.0177   -0.0012    0.0001   -0.0002    0.0004   -0.0000    0.0001
  Pz  O   51   -0.0676   -0.0376   -0.0022    0.0012   -0.0006    0.0560    0.0005    0.0004
  S   H   52    0.1839    0.0834    0.0058   -0.0034    0.0015   -0.1458   -0.0013   -0.0008
  S   H   53    0.2049    0.0958    0.0075   -0.0030    0.0014   -0.1099   -0.0008   -0.0007
  S   O   54    0.1533   -0.0619    0.0767   -0.0085    0.0015   -0.0173    0.0064    0.0094
  Px  O   54    0.0406   -0.0130    0.0149   -0.0017    0.0001   -0.0057    0.0016    0.0030
  Py  O   54   -0.0222    0.0120   -0.0020    0.0006    0.0002    0.0013   -0.0008   -0.0021
  Pz  O   54   -0.0318    0.0298   -0.0148    0.0024   -0.0001    0.0013   -0.0030   -0.0054
  S   H   55    0.0583   -0.0295    0.0319   -0.0035    0.0005   -0.0057    0.0030    0.0047
  S   H   56    0.0515   -0.0168    0.0092   -0.0017    0.0001   -0.0052    0.0013    0.0025
  S   O   57   -0.2135   -0.1014   -0.0323    0.0025   -0.0019    0.0587    0.0020    0.0052
  Px  O   57   -0.0712   -0.0320   -0.0073    0.0010   -0.0006    0.0304    0.0005    0.0009
  Py  O   57    0.0110    0.0062    0.0026   -0.0001    0.0001   -0.0018   -0.0002   -0.0006
  Pz  O   57    0.0328    0.0185    0.0040   -0.0004    0.0004   -0.0173   -0.0006   -0.0012
  S   H   58   -0.0655   -0.0268   -0.0068    0.0007   -0.0004    0.0182    0.0002    0.0003
  S   H   59   -0.0878   -0.0434   -0.0125    0.0010   -0.0008    0.0283    0.0010    0.0023
  S   O   60    0.0052   -0.0161   -0.0046    0.0123    0.8538    0.0049   -0.0062    0.0054
  Px  O   60   -0.0000   -0.0001   -0.0000    0.0001    0.0133    0.0001   -0.0002    0.0002
  Py  O   60   -0.0005    0.0016    0.0004   -0.0014   -0.0973   -0.0006    0.0009   -0.0007
  Pz  O   60   -0.0014    0.0042    0.0012   -0.0031   -0.2143   -0.0012    0.0015   -0.0013
  S   H   61    0.0023   -0.0069   -0.0020    0.0050    0.3364    0.0019   -0.0022    0.0019
  S   H   62    0.0019   -0.0060   -0.0017    0.0045    0.3169    0.0018   -0.0023    0.0020
  S   O   63   -0.0045    0.0084   -0.0004   -0.0245    0.0004   -0.0006    0.0420    0.0712
  Px  O   63   -0.0004    0.0009   -0.0001   -0.0039    0.0001   -0.0001    0.0064    0.0103
  Py  O   63    0.0011   -0.0020    0.0001    0.0065   -0.0001    0.0001   -0.0095   -0.0155
  Pz  O   63    0.0004   -0.0007    0.0000    0.0003   -0.0000    0.0000   -0.0008   -0.0021
  S   H   64   -0.0025    0.0045   -0.0002   -0.0140    0.0002   -0.0003    0.0210    0.0348
  S   H   65   -0.0011    0.0021   -0.0001   -0.0064    0.0001   -0.0002    0.0111    0.0187
  S   O   66   -0.0393    0.0702   -0.0004   -0.0292   -0.0004   -0.0126    0.3011    0.7541
  Px  O   66   -0.0062    0.0120   -0.0001   -0.0061   -0.0002   -0.0029    0.0716    0.1804
  Py  O   66    0.0061   -0.0104    0.0001    0.0038    0.0000    0.0016   -0.0341   -0.0849
  Pz  O   66    0.0004   -0.0007   -0.0001   -0.0009    0.0000    0.0002   -0.0022   -0.0069
  S   H   67   -0.0141    0.0250   -0.0003   -0.0115   -0.0002   -0.0045    0.1050    0.2615
  S   H   68   -0.0155    0.0275   -0.0000   -0.0105   -0.0002   -0.0049    0.1119    0.2808
  S   O   69   -0.2915   -0.3349   -0.0111    0.0021   -0.0038    0.1311    0.0016    0.0034
  Px  O   69   -0.0423   -0.0343   -0.0014    0.0004   -0.0004    0.0185    0.0003    0.0005
  Py  O   69    0.0145    0.0236    0.0006   -0.0001    0.0003   -0.0057   -0.0000   -0.0002
  Pz  O   69    0.0625    0.0750    0.0024   -0.0004    0.0008   -0.0259   -0.0003   -0.0006
  S   H   70   -0.1256   -0.1234   -0.0044    0.0010   -0.0013    0.0515    0.0005    0.0008
  S   H   71   -0.0805   -0.1095   -0.0032    0.0004   -0.0012    0.0302    0.0004    0.0010
  S   H   72   -0.0001    0.0021    0.0034    0.1114   -0.0022   -0.0007   -0.0354    0.0203
  S   H   73    0.0021   -0.0057   -0.0029   -0.0380    0.0015   -0.0014    0.0161   -0.0081


   Root No.      17        18        19        20        21        22        23        24

                17 A      18 A      19 A      20 A      21 A      22 A      23 A      24 A   

               -27.363   -27.317   -27.016   -26.647   -26.338   -25.221   -23.861   -21.679
  
  S   C    1    0.0042   -0.0493   -0.0047    0.0029   -0.0757   -0.0280   -0.2067    0.3442
  Px  C    1   -0.0113    0.0057    0.0018   -0.0027   -0.0410   -0.0118   -0.0290   -0.0138
  Py  C    1   -0.0070    0.0233   -0.0013   -0.0008   -0.0713   -0.0204   -0.1164    0.1482
  Pz  C    1    0.0080   -0.0299    0.0014    0.0016    0.0508    0.0178    0.0886   -0.1125
  S   O    2    0.0253   -0.0813   -0.0023    0.0067    0.0954    0.0321    0.1439   -0.2658
  Px  O    2   -0.0031   -0.0219    0.0006   -0.0005    0.0019   -0.0007    0.0039    0.0031
  Py  O    2    0.0045   -0.0438   -0.0013    0.0020    0.0015   -0.0004   -0.0319    0.0867
  Pz  O    2   -0.0059    0.0093    0.0009   -0.0012   -0.0066    0.0007    0.0210   -0.0700
  S   N    3   -0.0216    0.0158    0.0020   -0.0041   -0.1044   -0.0192   -0.0465   -0.1010
  Px  N    3   -0.0005    0.0159    0.0074   -0.0028    0.1169    0.0430    0.2606   -0.3102
  Py  N    3    0.0100    0.0035   -0.0056    0.0061   -0.0824   -0.0176   -0.1121   -0.0013
  Pz  N    3   -0.0044   -0.0091    0.0054   -0.0026   -0.0008   -0.0003    0.0215    0.0304
  S   H    4    0.0111    0.0078   -0.0100    0.0045   -0.0496   -0.0080   -0.0473   -0.0568
  S   C    5   -0.0129    0.0169    0.0174   -0.0118    0.2777    0.0831    0.4393   -0.1369
  Px  C    5    0.0061   -0.0008    0.0006    0.0014    0.0362    0.0170    0.0295    0.0418
  Py  C    5    0.0007    0.0020   -0.0003    0.0036   -0.0937   -0.0080   -0.0191   -0.1879
  Pz  C    5    0.0016   -0.0055   -0.0008    0.0020   -0.0581   -0.0139    0.0040   -0.0232
  S   H    6   -0.0048    0.0033    0.0073   -0.0049    0.1146    0.0311    0.1960   -0.0292
  S   C    7   -0.0095    0.0159    0.0164   -0.0191    0.4731    0.0564    0.1668    0.3347
  Px  C    7    0.0009   -0.0010   -0.0004    0.0014   -0.0121    0.0402    0.0225    0.0064
  Py  C    7   -0.0023    0.0026    0.0017   -0.0004    0.0283    0.0439    0.0765   -0.0881
  Pz  C    7   -0.0013    0.0002    0.0000    0.0020   -0.0468    0.0068    0.1878   -0.0195
  S   H    8   -0.0036    0.0062    0.0069   -0.0079    0.1993    0.0313    0.0885    0.1800
  S   H    9   -0.0038    0.0074    0.0068   -0.0083    0.1897   -0.0063    0.0792    0.1601
  S   C   10   -0.0035    0.0072    0.0109   -0.0161    0.3527    0.0246   -0.2677    0.0546
  Px  C   10   -0.0011    0.0003    0.0001    0.0016    0.0207    0.1740   -0.0050    0.0107
  Py  C   10    0.0003   -0.0006   -0.0036    0.0058   -0.0291    0.1420    0.0067   -0.0561
  Pz  C   10   -0.0036    0.0073    0.0047   -0.0055    0.1679   -0.0072    0.1053    0.2047
  S   C   11    0.0010    0.0005    0.0082   -0.0152    0.0937   -0.4080   -0.1473   -0.1363
  Px  C   11   -0.0007    0.0000    0.0022   -0.0030    0.0598    0.0475   -0.0781    0.0288
  Py  C   11    0.0000   -0.0002   -0.0005    0.0006    0.0292    0.0662   -0.0477    0.0202
  Pz  C   11   -0.0021    0.0060    0.0019   -0.0024    0.1631    0.1017   -0.0983    0.0969
  S   H   12    0.0001    0.0035    0.0040   -0.0072    0.0737   -0.1873   -0.0602   -0.0397
  S   C   13    0.0029   -0.0078    0.0040   -0.0074   -0.1965   -0.4101    0.1853   -0.0553
  Px  C   13    0.0002   -0.0021    0.0006   -0.0004   -0.0435    0.0264    0.0240    0.0427
  Py  C   13    0.0006   -0.0024   -0.0006    0.0012   -0.0545    0.0269    0.0356    0.0481
  Pz  C   13    0.0005    0.0014    0.0016   -0.0041    0.0721   -0.1218   -0.1398   -0.1609
  S   H   14    0.0009   -0.0023    0.0015   -0.0028   -0.0696   -0.1770    0.0913   -0.0226
  S   C   15    0.0010   -0.0113    0.0019    0.0010   -0.3257    0.0203    0.3355    0.2747
  Px  C   15   -0.0006   -0.0009   -0.0005    0.0021   -0.0229    0.1650   -0.0244    0.0157
  Py  C   15   -0.0006   -0.0004   -0.0017    0.0040   -0.0107    0.1615   -0.0245    0.0284
  Pz  C   15    0.0019   -0.0024   -0.0018    0.0011   -0.0337   -0.0360   -0.0386   -0.1086
  S   H   16   -0.0011   -0.0040    0.0029   -0.0011   -0.1365    0.0222    0.1826    0.1960
  S   C   17   -0.0010   -0.0029   -0.0004    0.0032    0.0295    0.3973   -0.2320   -0.1959
  Px  C   17   -0.0014    0.0007    0.0010   -0.0002   -0.0140    0.0114    0.0414   -0.0025
  Py  C   17    0.0002   -0.0003   -0.0037    0.0056   -0.0406    0.0401    0.0398   -0.0255
  Pz  C   17   -0.0014    0.0056    0.0039   -0.0066    0.1757   -0.1017   -0.0619    0.0415
  S   H   18   -0.0019    0.0002    0.0004    0.0015    0.0318    0.1676   -0.0811   -0.0854
  S   C   19   -0.0000   -0.0103   -0.0034    0.0101   -0.2597    0.4241    0.0682    0.0172
  Px  C   19   -0.0016    0.0018    0.0013   -0.0012    0.0499    0.0642   -0.0797   -0.0929
  Py  C   19   -0.0006    0.0021   -0.0023    0.0032    0.0498    0.0223   -0.0459   -0.0510
  Pz  C   19    0.0012   -0.0001   -0.0027    0.0025    0.0451    0.0823   -0.1503   -0.1792
  S   H   20   -0.0018   -0.0036   -0.0007    0.0046   -0.1070    0.2024    0.0409    0.0209
  S   O   21    0.2175   -0.0215   -0.5276    0.5847    0.0495   -0.0268    0.0104    0.0077
  Px  O   21    0.0381   -0.0037   -0.0851    0.0852    0.0066   -0.0006   -0.0014   -0.0040
  Py  O   21    0.0370   -0.0037   -0.0786    0.0743    0.0072   -0.0043    0.0013   -0.0001
  Pz  O   21   -0.0272    0.0031    0.0728   -0.0882   -0.0083    0.0021   -0.0081   -0.0023
  S   H   22    0.0655   -0.0066   -0.1638    0.1860    0.0150   -0.0058    0.0058    0.0026
  S   H   23    0.0983   -0.0096   -0.2107    0.2010    0.0169   -0.0069   -0.0009   -0.0019
  S   O   24   -0.0005    0.0045   -0.0019    0.0017    0.0880    0.0272   -0.0540   -0.0248
  Px  O   24    0.0001   -0.0007    0.0003   -0.0002   -0.0106    0.0045   -0.0031   -0.0052
  Py  O   24   -0.0000    0.0001   -0.0000    0.0001   -0.0016    0.0049    0.0057    0.0081
  Pz  O   24    0.0000    0.0001   -0.0001    0.0001    0.0011    0.0035   -0.0021   -0.0039
  S   H   25   -0.0001    0.0008   -0.0003    0.0003    0.0094    0.0080   -0.0010    0.0014
  S   H   26   -0.0001    0.0012   -0.0005    0.0003    0.0185   -0.0045    0.0005    0.0038
  S   O   27   -0.0801    0.0112    0.1527   -0.1352    0.0507   -0.0271   -0.0330   -0.0264
  Px  O   27   -0.0173    0.0022    0.0334   -0.0303    0.0025    0.0012    0.0033    0.0101
  Py  O   27   -0.0057    0.0011    0.0109   -0.0102    0.0147   -0.0092   -0.0192   -0.0298
  Pz  O   27    0.0230   -0.0026   -0.0518    0.0546   -0.0002   -0.0000    0.0002   -0.0053
  S   H   28   -0.0308    0.0037    0.0593   -0.0532   -0.0012    0.0041    0.0119    0.0231
  S   H   29   -0.0250    0.0036    0.0463   -0.0403    0.0198   -0.0103   -0.0157   -0.0181
  S   O   30    0.0000   -0.0001   -0.0000    0.0000    0.0002    0.0021   -0.0007    0.0002
  Px  O   30   -0.0000    0.0000    0.0000   -0.0000    0.0002   -0.0009    0.0005   -0.0006
  Py  O   30   -0.0000    0.0001    0.0000   -0.0000    0.0001   -0.0012    0.0006   -0.0007
  Pz  O   30    0.0000   -0.0000    0.0000   -0.0000   -0.0004   -0.0003    0.0001    0.0001
  S   H   31    0.0000   -0.0001   -0.0000    0.0000    0.0000    0.0009   -0.0004    0.0003
[...]
  
  S  H  62   0.00003    -0.00001     0.00000     0.00000    -0.00000     0.00000
  
  S  O  63   0.00018    -0.00000     0.00008     0.00000    -0.00021    -0.00047
 PX  O  63   0.00016    -0.00000    -0.00003     0.00000    -0.00003    -0.00026
 PY  O  63  -0.00042     0.00000    -0.00006    -0.00000     0.00008     0.00089
 PZ  O  63  -0.00003     0.00000    -0.00011     0.00000     0.00014     0.00018
  
  S  H  64  -0.00051     0.00000    -0.00005    -0.00000     0.00027     0.00107
  
  S  H  65  -0.00011     0.00000    -0.00009    -0.00000     0.00040     0.00046
  
  S  O  66  -0.00004    -0.00000     0.00525     0.00000     0.00025    -0.00025
 PX  O  66  -0.00004    -0.00000     0.40120     0.00000     0.00060    -0.00017
 PY  O  66   0.00005     0.00000     0.91394    -0.00000    -0.00027     0.00025
 PZ  O  66  -0.00005    -0.00000     0.03387    -0.00000     0.00007    -0.00029
  
  S  H  67   0.00009     0.00000     0.00017    -0.00000    -0.00097     0.00052
  
  S  H  68   0.00005     0.00000    -0.00051    -0.00000    -0.00065     0.00032
  
  S  O  69  -0.00000     0.00000     0.00014    -0.00000    -0.00062    -0.00004
 PX  O  69  -0.00001     0.00000     0.00030    -0.00000    -0.00084    -0.00007
 PY  O  69  -0.00000    -0.00000     0.00001     0.00000     0.00002     0.00000
 PZ  O  69   0.00000    -0.00000    -0.00016     0.00000     0.00067     0.00004
  
  S  H  70   0.00001    -0.00000    -0.00031     0.00000     0.00226     0.00008
  
  S  H  71   0.00000    -0.00000    -0.00012     0.00000     0.00053     0.00004
  
  S  H  72  -0.00190    -0.00009     0.00003    -0.00001     0.00053     0.07205
  
  S  H  73   0.00439     0.00001    -0.00018    -0.00012    -0.00014    -0.00367




    ROOT NO.   91          92          93          94          95          96

           -10.72452   -10.66420   -10.56094   -10.36337   -10.34266   -10.23647
  
  
  S  C   1  -0.00007     0.00276     0.00203     0.00042    -0.00214     0.00030
 PX  C   1  -0.00016     0.00279     0.09004    -0.00016    -0.00001    -0.00031
 PY  C   1   0.00005    -0.00003     0.23701    -0.00267     0.00158    -0.00200
 PZ  C   1   0.00001    -0.00040     0.32097    -0.00333    -0.00288    -0.00258
  
  S  O   2   0.00002    -0.00036    -0.00091    -0.00009     0.00138    -0.00006
 PX  O   2   0.00009    -0.00119    -0.02297     0.00013    -0.00013     0.00017
 PY  O   2   0.00005    -0.00109    -0.06358     0.00062     0.00141     0.00056
 PZ  O   2  -0.00006     0.00101    -0.08177     0.00129    -0.00191     0.00107
  
  S  N   3   0.00037    -0.00763     0.06415    -0.00069     0.00025    -0.00033
 PX  N   3   0.00005    -0.00030     0.16032     0.00022    -0.00021     0.00023
 PY  N   3   0.00046    -0.00611     0.51570    -0.00114     0.00018    -0.00085
 PZ  N   3  -0.00036     0.00514     0.71761     0.00008     0.00060    -0.00026
  
  S  H   4  -0.00068     0.01971    -0.00021     0.00081    -0.00050     0.00015
  
  S  C   5  -0.00004     0.00128    -0.01701    -0.01304    -0.00019    -0.00975
 PX  C   5   0.00022    -0.00383     0.00559    -0.00069    -0.00002    -0.00042
 PY  C   5  -0.00005     0.00158     0.05369     0.02019     0.00014     0.01579
 PZ  C   5   0.00003    -0.00064     0.06260     0.01678    -0.00029     0.01336
  
  S  H   6   0.00009    -0.00080    -0.02026     0.00295     0.00048     0.00241
  
  S  C   7   0.00001    -0.00010     0.02750     0.00455     0.00013     0.00201
 PX  C   7  -0.00002     0.00025     0.00533     0.00013    -0.00016     0.00152
 PY  C   7   0.00003    -0.00021     0.03613     0.00988     0.00002     0.00487
 PZ  C   7   0.00002    -0.00020     0.02551     0.00425     0.00012     0.00380
  
  S  H   8  -0.00002     0.00037    -0.00584     0.02243    -0.00000     0.01746
  
  S  H   9   0.00002    -0.00018     0.00283    -0.00099    -0.00008    -0.00013
  
  S  C  10   0.00001    -0.00018     0.00055     0.00135    -0.00001     0.00466
 PX  C  10  -0.00001     0.00015    -0.00036    -0.22133    -0.00002    -0.12870
 PY  C  10   0.00002    -0.00027     0.00378     0.33421     0.00002     0.19957
 PZ  C  10   0.00001    -0.00021     0.00142     0.04954    -0.00001     0.03218
  
  S  C  11   0.00000    -0.00002     0.00188     0.00791     0.00005    -0.00235
 PX  C  11   0.00001    -0.00003     0.00242    -0.46501    -0.00004    -0.03790
 PY  C  11  -0.00000     0.00003    -0.00079     0.53573    -0.00005     0.04318
 PZ  C  11   0.00000    -0.00001     0.00088    -0.02708     0.00005     0.00391
  
  S  H  12  -0.00000     0.00003    -0.00040     0.00542    -0.00003     0.00322
  
  S  C  13   0.00000    -0.00004    -0.00020    -0.00517    -0.00001    -0.00055
 PX  C  13  -0.00000    -0.00000     0.00089    -0.39236     0.00000     0.29837
 PY  C  13   0.00000    -0.00003    -0.00067     0.35770    -0.00000    -0.27632
 PZ  C  13   0.00000    -0.00002    -0.00037    -0.00038    -0.00001     0.01042
  
  S  H  14  -0.00000     0.00002     0.00019     0.00734    -0.00000    -0.00655
  
  S  C  15   0.00001    -0.00006    -0.00006     0.00725     0.00000     0.03209
 PX  C  15  -0.00001     0.00011    -0.00173    -0.02698    -0.00001     0.54590
 PY  C  15   0.00001    -0.00014     0.00173     0.01997     0.00000    -0.47824
 PZ  C  15  -0.00000     0.00001     0.00030     0.00909     0.00001    -0.10071
  
  S  H  16   0.00000    -0.00001     0.00005    -0.00481    -0.00000    -0.00384
  
  S  C  17   0.00002    -0.00021    -0.00046     0.00100     0.00002    -0.00178
 PX  C  17  -0.00000     0.00006     0.00234     0.00391    -0.00000    -0.00195
 PY  C  17   0.00003    -0.00033    -0.00153    -0.00624    -0.00002     0.00443
 PZ  C  17   0.00001    -0.00012    -0.00117    -0.00196     0.00001     0.00028
  
  S  H  18  -0.00000     0.00004    -0.00054    -0.00231     0.00000    -0.00246
  
  S  C  19   0.00001    -0.00017     0.00007    -0.00128    -0.00000     0.00726
 PX  C  19  -0.00001     0.00010     0.00089     0.14123     0.00000     0.30670
 PY  C  19   0.00002    -0.00024    -0.00093    -0.15968    -0.00000    -0.35442
 PZ  C  19  -0.00000     0.00000    -0.00021    -0.04264    -0.00000    -0.09397
  
  S  H  20   0.00000     0.00002    -0.00009     0.00169     0.00000     0.00028
  
  S  O  21   0.00049    -0.00836     0.00130    -0.00024     0.00001     0.00258
 PX  O  21   0.00073    -0.01153     0.00098    -0.00021     0.00002     0.00108
 PY  O  21   0.00088    -0.01119     0.00107    -0.00025     0.00001     0.00067
 PZ  O  21   0.00001     0.00032    -0.00116    -0.00031     0.00000    -0.00511
  
  S  H  22  -0.00051     0.00580    -0.00319     0.00071    -0.00001    -0.01357
  
  S  H  23  -0.00131     0.03587    -0.00436     0.00104    -0.00002    -0.00300
  
  S  O  24   0.00000    -0.00001     0.00005     0.00587     0.00000    -0.01502
 PX  O  24  -0.00000     0.00001    -0.00006    -0.00712    -0.00000     0.01407
 PY  O  24   0.00000    -0.00001     0.00008     0.00527     0.00000    -0.01134
 PZ  O  24   0.00000    -0.00001     0.00004     0.00498     0.00000    -0.01293
  
  S  H  25  -0.00000     0.00002    -0.00014    -0.01862    -0.00000     0.05593
  
  S  H  26  -0.00000     0.00001    -0.00005    -0.01151    -0.00000     0.03070
  
  S  O  27   0.00005    -0.00058     0.00019     0.00090     0.00000     0.00500
 PX  O  27   0.00005    -0.00051     0.00016     0.00161     0.00000     0.00688
 PY  O  27   0.00002    -0.00017     0.00007    -0.00023     0.00000    -0.00078
 PZ  O  27   0.00006    -0.00064     0.00013    -0.00093     0.00000    -0.00411
  
  S  H  28  -0.00007     0.00071    -0.00032    -0.00426    -0.00000    -0.02320
  
  S  H  29  -0.00006     0.00067    -0.00031    -0.00158    -0.00000    -0.00781
  
  S  O  30  -0.00000    -0.00000    -0.00000    -0.00010     0.00000     0.00009
 PX  O  30   0.00000    -0.00000    -0.00000    -0.00002    -0.00000     0.00004
 PY  O  30   0.00000    -0.00000     0.00000     0.00003    -0.00000    -0.00002
 PZ  O  30   0.00000    -0.00000    -0.00000    -0.00009     0.00000     0.00008
  
  S  H  31  -0.00000     0.00000     0.00000     0.00019    -0.00000    -0.00018
  
  S  H  32  -0.00000     0.00000     0.00000     0.00033    -0.00000    -0.00026
  
  S  O  33   0.00000    -0.00000    -0.00001    -0.00062     0.00000     0.00069
 PX  O  33  -0.00000     0.00000    -0.00000     0.00007    -0.00000    -0.00006
 PY  O  33  -0.00000     0.00000     0.00001     0.00091    -0.00000    -0.00107
 PZ  O  33  -0.00000     0.00000     0.00000     0.00004     0.00000     0.00001
  
  S  H  34  -0.00000     0.00000     0.00002     0.00209    -0.00000    -0.00211
  
  S  H  35  -0.00000     0.00000     0.00002     0.00167    -0.00000    -0.00190
  
  S  O  36   0.00000    -0.00000     0.00000    -0.00016     0.00000    -0.00071
 PX  O  36  -0.00000     0.00001    -0.00001     0.00025    -0.00000     0.00120
 PY  O  36   0.00000    -0.00000    -0.00000     0.00014    -0.00000     0.00090
 PZ  O  36   0.00000    -0.00000     0.00000    -0.00008    -0.00000    -0.00031
  
  S  H  37  -0.00000     0.00000    -0.00001     0.00085    -0.00000     0.00344
  
  S  H  38  -0.00000     0.00001    -0.00001     0.00025     0.00000     0.00073
  
  S  O  39   0.00000    -0.00006    -0.00240    -0.00001     0.00587     0.00001
 PX  O  39   0.00001    -0.00015    -0.00643     0.00001     0.01073     0.00004
 PY  O  39   0.00000    -0.00007    -0.00300     0.00001    -0.00018     0.00003
 PZ  O  39   0.00000    -0.00005    -0.00205    -0.00000     0.00392     0.00002
  
  S  H  40  -0.00000     0.00003     0.00155     0.00003    -0.01296    -0.00000
  
  S  H  41  -0.00001     0.00022     0.01001     0.00015    -0.02202    -0.00003
  
  S  O  42   0.00000    -0.00004     0.00062    -0.00003     0.00185    -0.00002
 PX  O  42  -0.00000     0.00001     0.00025    -0.00000     0.84001    -0.00000
 PY  O  42   0.00001    -0.00012     0.00177    -0.00008     0.11253    -0.00006
 PZ  O  42  -0.00000     0.00003    -0.00017     0.00001     0.52998     0.00001
  
  S  H  43  -0.00000     0.00003    -0.00017     0.00002    -0.00010     0.00002
  
  S  H  44  -0.00000     0.00012    -0.00208     0.00010     0.00064     0.00008
  
  S  O  45   0.00000    -0.00001     0.00003    -0.00012     0.00000    -0.00413
 PX  O  45  -0.00000     0.00000     0.00000    -0.00027    -0.00000    -0.00151
 PY  O  45  -0.00000     0.00000    -0.00004     0.00001    -0.00000     0.00682
 PZ  O  45   0.00000    -0.00000     0.00002     0.00033     0.00000    -0.00239
  
  S  H  46  -0.00000     0.00001    -0.00004     0.00080    -0.00000     0.00701
  
  S  H  47  -0.00000     0.00001    -0.00007     0.00114    -0.00000     0.02031
  
  S  O  48   0.00569    -0.01169    -0.00023    -0.00001     0.00001     0.00013
 PX  O  48   0.00538     0.92244    -0.00021    -0.00000     0.00001     0.00010
 PY  O  48   0.01076    -0.34746    -0.00045     0.00001    -0.00000     0.00008
 PZ  O  48   0.00672    -0.16026    -0.00035     0.00000    -0.00000    -0.00016
  
  S  H  49  -0.00341    -0.00114     0.00040    -0.00003    -0.00002    -0.00025
  
  S  H  50  -0.02730     0.00096     0.00095     0.00001    -0.00001    -0.00028
  
  S  O  51   0.00000    -0.00001     0.00000    -0.00015     0.00000     0.00027
 PX  O  51   0.00000    -0.00001     0.00000    -0.00026     0.00000     0.00044
 PY  O  51   0.00000    -0.00001     0.00001     0.00018     0.00000    -0.00021
 PZ  O  51   0.00000    -0.00000     0.00000    -0.00002    -0.00000    -0.00002
  
  S  H  52  -0.00000     0.00001    -0.00000     0.00011    -0.00000    -0.00035
  
  S  H  53  -0.00000     0.00001     0.00000     0.00072    -0.00000    -0.00116
  
  S  O  54   0.00000    -0.00003     0.00001     0.00022     0.00000    -0.00013
 PX  O  54   0.00000    -0.00001     0.00001     0.00023     0.00000    -0.00050
 PY  O  54   0.00000    -0.00000    -0.00001    -0.00023    -0.00000     0.00119
 PZ  O  54   0.00000    -0.00002     0.00000    -0.00005     0.00000    -0.00035
  
  S  H  55  -0.00001     0.00006    -0.00002    -0.00054    -0.00000    -0.00101
  
  S  H  56  -0.00000     0.00004    -0.00003    -0.00049    -0.00000     0.00208
  
  S  O  57   0.00000    -0.00001     0.00001     0.00004     0.00000     0.00021
 PX  O  57   0.00000    -0.00004     0.00001     0.00011     0.00000     0.00039
 PY  O  57  -0.00000     0.00000     0.00000     0.00001     0.00000    -0.00001
 PZ  O  57   0.00000    -0.00002     0.00001     0.00004     0.00000     0.00019
  
  S  H  58  -0.00000     0.00004    -0.00002    -0.00024    -0.00000    -0.00119
  
  S  H  59  -0.00000     0.00001    -0.00000    -0.00004    -0.00000    -0.00020
  
  S  O  60   0.00000    -0.00000     0.00004     0.00047     0.00001     0.00002
 PX  O  60   0.00000    -0.00000     0.00001    -0.00038    -0.00001    -0.00004
 PY  O  60  -0.00000     0.00000    -0.00002    -0.00019    -0.00000    -0.00003
 PZ  O  60  -0.00000     0.00000    -0.00006    -0.00068    -0.00002    -0.00002
  
  S  H  61  -0.00000     0.00000    -0.00010    -0.00240    -0.00003    -0.00019
  
  S  H  62  -0.00000     0.00000    -0.00010    -0.00056    -0.00001    -0.00002
  
  S  O  63   0.00864    -0.00187    -0.00150    -0.00002     0.00000    -0.00001
 PX  O  63  -0.43611    -0.00146    -0.00093    -0.00002     0.00000    -0.00001
 PY  O  63  -0.22090     0.00269     0.00247     0.00005    -0.00001     0.00003
 PZ  O  63   0.87175     0.00006     0.00019     0.00000    -0.00000    -0.00001
  
  S  H  64   0.00036     0.00617     0.00648     0.00009    -0.00001     0.00006
  
  S  H  65  -0.00104     0.00230     0.00089     0.00002    -0.00000    -0.00001
  
  S  O  66   0.00055    -0.00422     0.00013     0.00020     0.00000     0.00037
 PX  O  66   0.00061    -0.00534     0.00008     0.00036     0.00000     0.00052
 PY  O  66  -0.00038     0.00360    -0.00015    -0.00019    -0.00000    -0.00045
 PZ  O  66   0.00076    -0.00203     0.00005    -0.00018     0.00000    -0.00030
  
  S  H  67  -0.00207     0.01235    -0.00034    -0.00043    -0.00001    -0.00044
  
  S  H  68  -0.00047     0.00829    -0.00020    -0.00082    -0.00000    -0.00133
  
  S  O  69   0.00001    -0.00012     0.00005    -0.00015     0.00000     0.00070
 PX  O  69   0.00002    -0.00023     0.00008    -0.00015     0.00000     0.00102
 PY  O  69   0.00000    -0.00000    -0.00000     0.00004    -0.00000    -0.00003
 PZ  O  69  -0.00001     0.00013    -0.00005     0.00018    -0.00000    -0.00077
  
  S  H  70  -0.00002     0.00027    -0.00014     0.00054    -0.00000    -0.00284
  
  S  H  71  -0.00001     0.00011    -0.00005     0.00025    -0.00000    -0.00071
  
  S  H  72   0.00005    -0.00129    -0.00197     0.00026     0.00043     0.00012
  
  S  H  73  -0.00009     0.00039    -0.00961     0.00067     0.00002     0.00067




    ROOT NO.   97

           -10.18136
  
  
  S  C   1   0.00074
 PX  C   1   0.00061
 PY  C   1  -0.00192
 PZ  C   1  -0.00247
  
  S  O   2  -0.00011
 PX  O   2  -0.00001
 PY  O   2   0.00043
 PZ  O   2   0.00113
  
  S  N   3  -0.00166
 PX  N   3   0.00022
 PY  N   3  -0.00145
 PZ  N   3   0.00016
  
  S  H   4   0.00337
  
  S  C   5  -0.01392
 PX  C   5  -0.00151
 PY  C   5   0.02161
 PZ  C   5   0.01689
  
  S  H   6   0.00365
  
  S  C   7   0.00322
 PX  C   7  -0.00245
 PY  C   7   0.01331
 PZ  C   7   0.00689
  
  S  H   8   0.02245
  
  S  H   9  -0.00058
  
  S  C  10   0.01199
 PX  C  10  -0.25518
 PY  C  10   0.38689
 PZ  C  10   0.06400
  
  S  C  11  -0.00435
 PX  C  11  -0.03084
 PY  C  11   0.03524
 PZ  C  11   0.00426
  
  S  H  12   0.00204
  
  S  C  13   0.00838
 PX  C  13   0.16149
 PY  C  13  -0.14251
 PZ  C  13   0.00725
  
  S  H  14  -0.00481
  
  S  C  15  -0.00437
 PX  C  15   0.01941
 PY  C  15  -0.01715
 PZ  C  15  -0.00858
  
  S  H  16   0.00353
  
  S  C  17  -0.02462
 PX  C  17  -0.40161
 PY  C  17   0.57227
 PZ  C  17   0.12687
  
  S  H  18   0.00188
  
  S  C  19   0.00189
 PX  C  19  -0.30413
 PY  C  19   0.35118
 PZ  C  19   0.08938
  
  S  H  20  -0.00276
  
  S  O  21  -0.00298
 PX  O  21  -0.00224
 PY  O  21  -0.00176
 PZ  O  21   0.00354
  
  S  H  22   0.00960
  
  S  H  23   0.00911
  
  S  O  24   0.00009
 PX  O  24   0.00267
 PY  O  24   0.00184
 PZ  O  24   0.00222
  
  S  H  25  -0.00621
  
  S  H  26   0.00618
  
  S  O  27  -0.00155
 PX  O  27  -0.00260
 PY  O  27   0.00078
 PZ  O  27   0.00079
  
  S  H  28   0.00482
  
  S  H  29   0.00203
  
  S  O  30   0.00006
 PX  O  30   0.00002
 PY  O  30  -0.00002
 PZ  O  30   0.00006
  
  S  H  31  -0.00013
  
  S  H  32  -0.00019
  
  S  O  33   0.00042
 PX  O  33   0.00001
 PY  O  33  -0.00060
 PZ  O  33   0.00007
  
  S  H  34  -0.00127
  
  S  H  35  -0.00116
  
  S  O  36   0.00023
 PX  O  36  -0.00039
 PY  O  36  -0.00025
 PZ  O  36   0.00011
  
  S  H  37  -0.00106
  
  S  H  38  -0.00032
  
  S  O  39   0.00001
 PX  O  39   0.00003
 PY  O  39   0.00001
 PZ  O  39   0.00001
  
  S  H  40  -0.00000
  
  S  H  41  -0.00001
  
  S  O  42  -0.00003
 PX  O  42  -0.00000
 PY  O  42  -0.00008
 PZ  O  42   0.00001
  
  S  H  43   0.00002
  
  S  H  44   0.00010
  
  S  O  45   0.00032
 PX  O  45   0.00018
 PY  O  45  -0.00050
 PZ  O  45   0.00046
  
  S  H  46  -0.00042
  
  S  H  47  -0.00097
  
  S  O  48  -0.00025
 PX  O  48  -0.00019
 PY  O  48  -0.00015
 PZ  O  48   0.00029
  
  S  H  49   0.00050
  
  S  H  50   0.00053
  
  S  O  51   0.00010
 PX  O  51   0.00018
 PY  O  51  -0.00013
 PZ  O  51   0.00000
  
  S  H  52  -0.00011
  
  S  H  53  -0.00049
  
  S  O  54  -0.00019
 PX  O  54  -0.00011
 PY  O  54   0.00014
 PZ  O  54  -0.00012
  
  S  H  55   0.00037
  
  S  H  56   0.00039
  
  S  O  57  -0.00002
 PX  O  57  -0.00008
 PY  O  57  -0.00001
 PZ  O  57  -0.00005
  
  S  H  58   0.00004
  
  S  H  59  -0.00001
  
  S  O  60   0.00001
 PX  O  60  -0.00006
 PY  O  60  -0.00000
 PZ  O  60  -0.00006
  
  S  H  61  -0.00005
  
  S  H  62   0.00002
  
  S  O  63  -0.00006
 PX  O  63  -0.00003
 PY  O  63   0.00011
 PZ  O  63   0.00003
  
  S  H  64   0.00018
  
  S  H  65   0.00006
  
  S  O  66  -0.00108
 PX  O  66  -0.00145
 PY  O  66   0.00074
 PZ  O  66  -0.00005
  
  S  H  67   0.00364
  
  S  H  68   0.00340
  
  S  O  69  -0.00003
 PX  O  69  -0.00016
 PY  O  69  -0.00005
 PZ  O  69   0.00003
  
  S  H  70   0.00000
  
  S  H  71  -0.00008
  
  S  H  72   0.00009
  
  S  H  73   0.00208

          BONDING CONTRIBUTION OF EACH M.O.

  1.7252  1.8451  1.9501  1.7301  1.7109  1.7050  1.7051  1.7663  1.7147  0.0256
  0.0547  0.0474  1.6356  1.6843  0.0389  1.6498  1.6001  0.0220  1.6160  1.6266
  1.6261  1.7256  1.6830  0.0228  1.7050  1.6562  1.6862  1.7262  1.6075  1.7470
  0.0159  1.6715  0.0009  0.0004  1.7364  0.0511  1.7003  0.0041  1.9997  1.6853
  1.6466  1.6790  0.0082  0.0096  1.9979  1.9980  1.9929  1.9922  0.0011  1.6242
  1.9968  1.7044  1.9520  1.6176  1.5862  1.7327  0.0000  1.6876  1.9920  0.0023
  1.6916  0.0006  1.5140  0.0113  1.9607  1.9766  1.9450  1.9557  1.9366  1.9250
  1.9481  1.9352  1.9841  1.9466  0.0710  0.1129  0.0230  0.0176  0.0572  0.0001
  0.0401  0.0966  0.0561  0.0001  1.1482  0.0001  0.0165  0.0001  0.0013  0.2841
  0.0063  0.0162  1.0370  2.0152  0.0054  1.9296  2.0276 -1.9923 -2.0159 -2.1037
 -1.7595 -1.7364 -1.7364 -1.9718 -1.9635 -1.7301 -1.7259 -1.7231 -1.7023 -1.6778
 -1.7307 -1.8149 -1.7353 -1.9681 -1.9637 -1.9402 -1.9266 -1.7171 -1.7360 -1.7666
 -1.7119 -1.8393 -1.8686 -1.8158 -1.9057 -1.6552 -1.9653 -1.7403 -1.7719 -1.6767
 -1.8518 -1.9133 -1.9497 -1.6553 -1.7319 -1.6942 -1.9049 -1.7996 -1.6993 -1.9214
 -1.9029 -1.7653 -1.9312 -1.8569 -1.7733 -1.9499 -1.9112 -1.6993 -1.7008 -1.9228
 -1.7083 -1.8993 -1.7109 -1.8246 -1.6795 -1.6469 -1.7266

           DATA FOR GRAPH WRITTEN TO DISK

 **********************
 *                    *
 * JOB ENDED NORMALLY *
 *                    *
 **********************



 TOTAL JOB TIME:             0.92 SECONDS

 == MOPAC DONE ==
