 *******************************************************************************
 ** Site#: 34139        For non-commercial use only    Version 20.015L 64BITS **
 *******************************************************************************
 ** Cite this program as: MOPAC2016, Version: 20.015L, James J. P. Stewart,   **
 ** Stewart Computational Chemistry, web: HTTP://OpenMOPAC.net. Days left: 254**
 *******************************************************************************
 **                                                                           **
 **                                MOPAC2016                                  **
 **                                                                           **
 *******************************************************************************

                              PM7 CALCULATION RESULTS

 *******************************************************************************
 *  CALCULATION DONE:                                Wed May  6 10:12:42 2020  *
 *  PM7        - The PM7 Hamiltonian to be used
 *  QMMM       - Generate energies and gradients for use in MM codes
 *  DIPOLE     - PRINT DIPOLE INSTEAD OF ENERGY IN TRAJECTORIES
 *  GEO-OK     - OVERRIDE INTERATOMIC DISTANCE AND OTHER SAFETY CHECKS
 *
 *
 *
 *                 CHARGE ON SYSTEM = 0
 *
 *
 *
 *  LET        - OVERRIDE SOME SAFETY CHECKS
 *  XYZ        - CARTESIAN COORDINATE SYSTEM TO BE USED
 *  FORCE      - FORCE CALCULATION SPECIFIED
 *  1SCF       - DO 1 SCF AND THEN STOP 
 *  T=         - A TIME OF      2.0 MINUTES REQUESTED
 *  DUMP=N     - RESTART FILE WRITTEN EVERY  7200.000 SECONDS
 *  CUTOFF=    - CUTOFF FOR NDDO AND DIPOLE INTERACTIONS =  9.00A
 *  AUX        - OUTPUT AUXILIARY INFORMATION
 *  GRADIENTS  - ALL GRADIENTS TO BE PRINTED
 *  VECTORS    - FINAL EIGENVECTORS TO BE PRINTED
 *  EIGEN      - CONVERT LMO's INTO EIGENVECTORS
 *  LARGE      - EXPANDED OUTPUT TO BE PRINTED
 *  AIGOUT     - IN ARC FILE, INCLUDE AB-INITIO GEOMETRY
 *  GRAPH      - GENERATE FILE FOR GRAPHICS
 *  LOCALIZE   - LOCALIZED ORBITALS TO BE PRINTED
 *  PI         - BONDS MATRIX, SPLIT INTO SIGMA-PI-DELL COMPONENTS, TO BE PRINTED
 *******************************************************************************
PM7 XYZ T=2M 1SCF LOCALIZE AIGOUT GRAPH GRAPHF LARGE DIPOLE PI FORCE CUTOFF=9.0 AUX LET GRAD QMMM GEO-OK EIGEN VECTORS CHARGE=0
 Test System

   ATOM   CHEMICAL          X               Y               Z
  NUMBER   SYMBOL      (ANGSTROMS)     (ANGSTROMS)     (ANGSTROMS)
 
     1       C        -11.43533100  *  -0.99736400  *  -2.05952200  *
     2       O        -12.51647200  *  -1.53161000  *  -2.25969900  *
     3       N        -10.44953800  *  -1.46811100  *  -1.28124500  *
     4       H         -9.48455100  *  -0.93012400  *  -1.35179600  *
     5       C        -10.46846700  *  -2.65299000  *  -0.37765600  *
     6       H        -10.85787600  *  -2.30286400  *   0.58435000  *
     7       C        -11.28943500  *  -3.98369800  *  -0.76683200  *
     8       H        -10.85794500  *  -4.87699200  *  -0.33465300  *
     9       H        -12.23322000  *  -3.72624000  *  -0.31134700  *
    10       C        -11.60330300  *  -4.07782700  *  -2.22962000  *
    11       C        -12.95789500  *  -4.22241300  *  -2.58295800  *
    12       H        -13.78582500  *  -4.23017500  *  -1.83565900  *
    13       C        -13.31810900  *  -4.36545700  *  -3.93908600  *
    14       H        -14.30290800  *  -4.62322400  *  -4.16868300  *
    15       C        -12.34250300  *  -4.28719600  *  -4.95117200  *
    16       H        -12.70199500  *  -4.41339000  *  -5.94544600  *
    17       C        -10.68133200  *  -4.27200000  *  -3.21360400  *
    18       H         -9.54752500  *  -4.25710000  *  -3.00393200  *
    19       C        -10.98248800  *  -4.36886400  *  -4.60240600  *
    20       H        -10.25998000  *  -4.47459900  *  -5.41177200  *
    21       O         -8.18880900  *  -0.05703800  *  -1.88456300  *
    22       H         -7.52656500  *  -0.76962600  *  -2.22794800  *
    23       H         -7.73480500  *   0.17135600  *  -1.00127400  *
    24       O         -8.27345500  *  -2.73622800  *  -4.69259400  *
    25       H         -7.70487400  *  -2.30535200  *  -4.11839100  *
    26       H         -7.94567600  *  -3.64747200  *  -4.69180800  *
    27       O         -9.88473600  *   2.21731200  *  -8.00965500  *
    28       H         -9.57266400  *   1.74065600  *  -7.20009500  *
    29       H         -8.99442400  *   2.67443200  *  -8.23862300  *
    30       O         -7.86188900  *  -5.90461900  *  -4.96468400  *
    31       H         -7.21379600  *  -5.35459500  *  -5.46781700  *
    32       H         -7.55625100  *  -5.74237100  *  -4.05347400  *
    33       O        -10.58402800  *  -1.79723500  *  -5.59233000  *
    34       H        -10.00248600  *  -1.04375700  *  -5.70208300  *
    35       H         -9.91153100  *  -2.40436200  *  -5.12604800  *
    36       O         -5.52586500  *  -2.22381000  *  -5.77942200  *
    37       H         -4.57671900  *  -2.18915600  *  -5.99042200  *
    38       H         -5.70355700  *  -2.01190900  *  -4.85732600  *
    39       O        -12.23691400  *  -0.62267000  *   1.76202100  *
    40       H        -11.23447400  *  -0.63911900  *   1.53776200  *
    41       H        -12.34445000  *  -0.16268400  *   2.68171800  *
    42       O        -12.89700800  *  -3.21224400  *   1.58119100  *
    43       H        -12.70902200  *  -2.28542900  *   1.84479700  *
    44       H        -12.39807200  *  -3.81190100  *   2.18648700  *
    45       O         -6.25788600  *  -1.62541200  *  -3.32142300  *
    46       H         -5.52823100  *  -0.90579300  *  -3.27867700  *
    47       H         -5.76555400  *  -2.16294800  *  -2.67729400  *
    48       O         -5.89169200  *   2.11143000  *  -4.33872500  *
    49       H         -5.25941300  *   2.90389000  *  -4.18884600  *
    50       H         -5.36608400  *   1.43825700  *  -3.83728900  *
    51       O         -9.21261900  *   0.46940200  *  -6.10969700  *
    52       H         -9.04662700  *   0.98945300  *  -5.31649800  *
    53       H         -8.30984400  *   0.02363800  *  -6.40440800  *
    54       O         -5.21129800  *   1.46973000  *  -6.87580100  *
    55       H         -4.43050000  *   0.83218300  *  -6.76509300  *
    56       H         -5.29531600  *   1.81782200  *  -5.90845000  *
    57       O         -6.94517500  *  -0.50552200  *  -7.28027100  *
    58       H         -6.28778600  *   0.28710500  *  -7.33419300  *
    59       H         -6.57375800  *  -1.13967800  *  -6.66097200  *
    60       O         -6.09672400  *  -4.64793100  *  -6.75304800  *
    61       H         -5.88167800  *  -3.85381900  *  -6.32923600  *
    62       H         -5.38522500  *  -5.29676700  *  -6.55699500  *
    63       O         -8.57757500  *   1.72552400  *  -3.75012500  *
    64       H         -8.61700200  *   1.10563200  *  -3.09180300  *
    65       H         -7.62504300  *   1.92492800  *  -3.79153000  *
    66       O         -4.48291300  *   0.26610200  *  -2.94986900  *
    67       H         -4.59915800  *   0.36540700  *  -1.95230600  *
    68       H         -3.62978700  *  -0.18192300  *  -2.94916600  *
    69       O        -10.63931800  *   4.22748400  *  -4.81170500  *
    70       H         -9.78594800  *   3.85304100  *  -4.45575200  *
    71       H        -10.76962500  *   5.14800500  *  -4.36215300  *
    72       H        -11.21485200  *  -0.06486100  *  -2.57906600  *
    73       H         -9.40565000  *  -2.89055700  *  -0.33203100  *
 


          CARTESIAN COORDINATES 

    NO.       ATOM           X           Y           Z

     1         C        -11.4353     -0.9974     -2.0595
     2         O        -12.5165     -1.5316     -2.2597
     3         N        -10.4495     -1.4681     -1.2812
     4         H         -9.4846     -0.9301     -1.3518
     5         C        -10.4685     -2.6530     -0.3777
     6         H        -10.8579     -2.3029      0.5843
     7         C        -11.2894     -3.9837     -0.7668
     8         H        -10.8579     -4.8770     -0.3347
     9         H        -12.2332     -3.7262     -0.3113
    10         C        -11.6033     -4.0778     -2.2296
    11         C        -12.9579     -4.2224     -2.5830
    12         H        -13.7858     -4.2302     -1.8357
    13         C        -13.3181     -4.3655     -3.9391
    14         H        -14.3029     -4.6232     -4.1687
    15         C        -12.3425     -4.2872     -4.9512
    16         H        -12.7020     -4.4134     -5.9454
    17         C        -10.6813     -4.2720     -3.2136
    18         H         -9.5475     -4.2571     -3.0039
    19         C        -10.9825     -4.3689     -4.6024
    20         H        -10.2600     -4.4746     -5.4118
    21         O         -8.1888     -0.0570     -1.8846
    22         H         -7.5266     -0.7696     -2.2279
    23         H         -7.7348      0.1714     -1.0013
    24         O         -8.2735     -2.7362     -4.6926
    25         H         -7.7049     -2.3054     -4.1184
    26         H         -7.9457     -3.6475     -4.6918
    27         O         -9.8847      2.2173     -8.0097
    28         H         -9.5727      1.7407     -7.2001
    29         H         -8.9944      2.6744     -8.2386
    30         O         -7.8619     -5.9046     -4.9647
    31         H         -7.2138     -5.3546     -5.4678
    32         H         -7.5563     -5.7424     -4.0535
    33         O        -10.5840     -1.7972     -5.5923
    34         H        -10.0025     -1.0438     -5.7021
    35         H         -9.9115     -2.4044     -5.1260
    36         O         -5.5259     -2.2238     -5.7794
    37         H         -4.5767     -2.1892     -5.9904
    38         H         -5.7036     -2.0119     -4.8573
    39         O        -12.2369     -0.6227      1.7620
    40         H        -11.2345     -0.6391      1.5378
    41         H        -12.3445     -0.1627      2.6817
    42         O        -12.8970     -3.2122      1.5812
    43         H        -12.7090     -2.2854      1.8448
    44         H        -12.3981     -3.8119      2.1865
    45         O         -6.2579     -1.6254     -3.3214
    46         H         -5.5282     -0.9058     -3.2787
    47         H         -5.7656     -2.1629     -2.6773
    48         O         -5.8917      2.1114     -4.3387
    49         H         -5.2594      2.9039     -4.1888
    50         H         -5.3661      1.4383     -3.8373
    51         O         -9.2126      0.4694     -6.1097
    52         H         -9.0466      0.9895     -5.3165
    53         H         -8.3098      0.0236     -6.4044
    54         O         -5.2113      1.4697     -6.8758
    55         H         -4.4305      0.8322     -6.7651
    56         H         -5.2953      1.8178     -5.9085
    57         O         -6.9452     -0.5055     -7.2803
    58         H         -6.2878      0.2871     -7.3342
    59         H         -6.5738     -1.1397     -6.6610
    60         O         -6.0967     -4.6479     -6.7530
    61         H         -5.8817     -3.8538     -6.3292
    62         H         -5.3852     -5.2968     -6.5570
    63         O         -8.5776      1.7255     -3.7501
    64         H         -8.6170      1.1056     -3.0918
    65         H         -7.6250      1.9249     -3.7915
    66         O         -4.4829      0.2661     -2.9499
    67         H         -4.5992      0.3654     -1.9523
    68         H         -3.6298     -0.1819     -2.9492
    69         O        -10.6393      4.2275     -4.8117
    70         H         -9.7859      3.8530     -4.4558
    71         H        -10.7696      5.1480     -4.3622
    72         H        -11.2149     -0.0649     -2.5791
    73         H         -9.4056     -2.8906     -0.3320

 General Reference for PM7:
 "Optimization of Parameters for Semiempirical Methods VI: More Modifications to the 
 NDDO Approximations and Re-optimization of Parameters", J. J. P. Stewart, J. Mol. Mod., 1:32, 19 (2013)
 http://www.springerlink.com/openurl.asp?genre=article&id=doi:10.1007/s00894-012-1667-x

           Empirical Formula: C9 H45 N O18  =    73 atoms



      MOLECULAR POINT GROUP   :   C1  


      RHF CALCULATION, NO. OF DOUBLY OCCUPIED LEVELS = 97


 -------------------------------------------------------------------------------
 PM7 XYZ T=2M 1SCF LOCALIZE AIGOUT GRAPH GRAPHF LARGE DIPOLE PI FORCE CUTOFF=9.0 AUX LET GRAD QMMM GEO-OK EIGEN VECTORS CHARGE=0
 Test System



     1SCF WAS SPECIFIED, SO BFGS WAS NOT USED                 
     SCF FIELD WAS ACHIEVED                                   


                              PM7 CALCULATION
                                                       MOPAC2016 (Version: 20.015L)
                                                       Wed May  6 10:12:43 2020
                                                       No. of days remaining = 254




          FINAL HEAT OF FORMATION =      -1427.79861 KCAL/MOL =   -5973.90938 KJ/MOL


          TOTAL ENERGY            =      -7234.48063 EV
          ELECTRONIC ENERGY       =     -60703.09372 EV  POINT GROUP:     C1  
          CORE-CORE REPULSION     =      53468.61309 EV
          COSMO AREA              =        485.44 SQUARE ANGSTROMS
          COSMO VOLUME            =        645.52 CUBIC ANGSTROMS

          GRADIENT NORM           =        319.35449 = 37.37762 PER ATOM
          IONIZATION POTENTIAL    =         10.500306 EV
          HOMO LUMO ENERGIES (EV) =        -10.500 -0.921
          NO. OF FILLED LEVELS    =         97
          MOLECULAR WEIGHT        =        455.4504

          MOLECULAR DIMENSIONS (Angstroms)

            Atom       Atom       Distance
            H    55    H    44    12.85226
            H    71    H    62    11.90415
            H    16    H    67     9.27550


          SCF CALCULATIONS        =          1
 
          WALL-CLOCK TIME         =          0.656 SECONDS
          COMPUTATION TIME        =          0.931 SECONDS

          LARGEST ATOMIC GRADIENTS

          Atom     Label                     Cartesian Gradients           Cartesian Coordinates       |Gradient|
                                           X          Y          Z        X          Y          Z

            17       C                 -72.978     -8.437     49.728  -10.68133   -4.27200   -3.21360     88.712
            21       O                 -54.595     31.182    -41.703   -8.18881   -0.05704   -1.88456     75.445
             7       C                 -18.085    -65.356     15.114  -11.28943   -3.98370   -0.76683     69.476
            39       O                 -43.588    -15.943    -44.072  -12.23691   -0.62267    1.76202     64.003
            27       O                 -56.456    -26.399     -0.399   -9.88474    2.21731   -8.00966     62.325
            54       O                 -36.752      9.819    -48.119   -5.21130    1.46973   -6.87580     61.339
            51       O                 -54.309     14.765     -8.156   -9.21262    0.46940   -6.10970     56.868
            69       O                 -23.466    -38.115    -33.619  -10.63932    4.22748   -4.81170     55.979
            45       O                 -38.988    -15.300    -35.321   -6.25789   -1.62541   -3.32142     54.788
            63       O                 -28.388    -25.365     34.251   -8.57757    1.72552   -3.75013     51.209
            48       O                 -46.116     -3.574    -20.362   -5.89169    2.11143   -4.33873     50.538
            13       C                 -36.288     -6.232    -32.260  -13.31811   -4.36546   -3.93909     48.953



       FINAL  POINT  AND  DERIVATIVES

   PARAMETER     ATOM    TYPE            VALUE        GRADIENT
      1          1  C    CARTESIAN X   -11.435331    -16.693053  KCAL/ANGSTROM
      2          1  C    CARTESIAN Y    -0.997364      4.165668  KCAL/ANGSTROM
      3          1  C    CARTESIAN Z    -2.059522      4.742122  KCAL/ANGSTROM
      4          2  O    CARTESIAN X   -12.516472     13.653540  KCAL/ANGSTROM
      5          2  O    CARTESIAN Y    -1.531610      6.693422  KCAL/ANGSTROM
      6          2  O    CARTESIAN Z    -2.259699    -16.598141  KCAL/ANGSTROM
      7          3  N    CARTESIAN X   -10.449538    -20.595097  KCAL/ANGSTROM
      8          3  N    CARTESIAN Y    -1.468111     -3.896316  KCAL/ANGSTROM
      9          3  N    CARTESIAN Z    -1.281245    -10.912845  KCAL/ANGSTROM
     10          4  H    CARTESIAN X    -9.484551     36.438871  KCAL/ANGSTROM
     11          4  H    CARTESIAN Y    -0.930124     11.565470  KCAL/ANGSTROM
     12          4  H    CARTESIAN Z    -1.351796      7.553990  KCAL/ANGSTROM
     13          5  C    CARTESIAN X   -10.468467      1.374207  KCAL/ANGSTROM
     14          5  C    CARTESIAN Y    -2.652990      9.900724  KCAL/ANGSTROM
     15          5  C    CARTESIAN Z    -0.377656     31.857055  KCAL/ANGSTROM
     16          6  H    CARTESIAN X   -10.857876      7.283513  KCAL/ANGSTROM
     17          6  H    CARTESIAN Y    -2.302864      0.448057  KCAL/ANGSTROM
     18          6  H    CARTESIAN Z     0.584350     -7.924923  KCAL/ANGSTROM
     19          7  C    CARTESIAN X   -11.289435    -18.084508  KCAL/ANGSTROM
     20          7  C    CARTESIAN Y    -3.983698    -65.356056  KCAL/ANGSTROM
     21          7  C    CARTESIAN Z    -0.766832     15.114309  KCAL/ANGSTROM
     22          8  H    CARTESIAN X   -10.857945     -2.852167  KCAL/ANGSTROM
     23          8  H    CARTESIAN Y    -4.876992      5.915954  KCAL/ANGSTROM
     24          8  H    CARTESIAN Z    -0.334653      0.701160  KCAL/ANGSTROM
     25          9  H    CARTESIAN X   -12.233220     28.287110  KCAL/ANGSTROM
     26          9  H    CARTESIAN Y    -3.726240     10.590012  KCAL/ANGSTROM
     27          9  H    CARTESIAN Z    -0.311347    -17.409947  KCAL/ANGSTROM
     28         10  C    CARTESIAN X   -11.603303     23.701684  KCAL/ANGSTROM
     29         10  C    CARTESIAN Y    -4.077827     25.557286  KCAL/ANGSTROM
     30         10  C    CARTESIAN Z    -2.229620    -13.976149  KCAL/ANGSTROM
     31         11  C    CARTESIAN X   -12.957895     16.138217  KCAL/ANGSTROM
     32         11  C    CARTESIAN Y    -4.222413      1.889696  KCAL/ANGSTROM
     33         11  C    CARTESIAN Z    -2.582958     21.734530  KCAL/ANGSTROM
     34         12  H    CARTESIAN X   -13.785825    -15.609420  KCAL/ANGSTROM
     35         12  H    CARTESIAN Y    -4.230175     -3.816149  KCAL/ANGSTROM
     36         12  H    CARTESIAN Z    -1.835659      8.936458  KCAL/ANGSTROM
     37         13  C    CARTESIAN X   -13.318109    -36.288224  KCAL/ANGSTROM
     38         13  C    CARTESIAN Y    -4.365457     -6.232042  KCAL/ANGSTROM
     39         13  C    CARTESIAN Z    -3.939086    -32.260352  KCAL/ANGSTROM
     40         14  H    CARTESIAN X   -14.302908     26.265798  KCAL/ANGSTROM
     41         14  H    CARTESIAN Y    -4.623224     -3.972240  KCAL/ANGSTROM
     42         14  H    CARTESIAN Z    -4.168683      9.785164  KCAL/ANGSTROM
     43         15  C    CARTESIAN X   -12.342503    -10.754457  KCAL/ANGSTROM
     44         15  C    CARTESIAN Y    -4.287196     34.674913  KCAL/ANGSTROM
     45         15  C    CARTESIAN Z    -4.951172    -26.583207  KCAL/ANGSTROM
     46         16  H    CARTESIAN X   -12.701995     -4.243471  KCAL/ANGSTROM
     47         16  H    CARTESIAN Y    -4.413390     -8.825770  KCAL/ANGSTROM
     48         16  H    CARTESIAN Z    -5.945446     15.934667  KCAL/ANGSTROM
     49         17  C    CARTESIAN X   -10.681332    -72.977698  KCAL/ANGSTROM
     50         17  C    CARTESIAN Y    -4.272000     -8.436960  KCAL/ANGSTROM
     51         17  C    CARTESIAN Z    -3.213604     49.727756  KCAL/ANGSTROM
     52         18  H    CARTESIAN X    -9.547525     34.272800  KCAL/ANGSTROM
     53         18  H    CARTESIAN Y    -4.257100      2.428864  KCAL/ANGSTROM
     54         18  H    CARTESIAN Z    -3.003932      0.891302  KCAL/ANGSTROM
     55         19  C    CARTESIAN X   -10.982488     36.640008  KCAL/ANGSTROM
     56         19  C    CARTESIAN Y    -4.368864    -11.610212  KCAL/ANGSTROM
     57         19  C    CARTESIAN Z    -4.602406    -25.813338  KCAL/ANGSTROM
     58         20  H    CARTESIAN X   -10.259980     -2.449674  KCAL/ANGSTROM
     59         20  H    CARTESIAN Y    -4.474599     -1.190791  KCAL/ANGSTROM
     60         20  H    CARTESIAN Z    -5.411772     -7.375224  KCAL/ANGSTROM
     61         21  O    CARTESIAN X    -8.188809    -54.594742  KCAL/ANGSTROM
     62         21  O    CARTESIAN Y    -0.057038     31.181932  KCAL/ANGSTROM
     63         21  O    CARTESIAN Z    -1.884563    -41.702578  KCAL/ANGSTROM
     64         22  H    CARTESIAN X    -7.526565     26.828210  KCAL/ANGSTROM
     65         22  H    CARTESIAN Y    -0.769626    -20.376989  KCAL/ANGSTROM
     66         22  H    CARTESIAN Z    -2.227948      9.081012  KCAL/ANGSTROM
     67         23  H    CARTESIAN X    -7.734805     21.303322  KCAL/ANGSTROM
     68         23  H    CARTESIAN Y     0.171356     -4.010736  KCAL/ANGSTROM
     69         23  H    CARTESIAN Z    -1.001274     26.384101  KCAL/ANGSTROM
     70         24  O    CARTESIAN X    -8.273455     -8.589962  KCAL/ANGSTROM
     71         24  O    CARTESIAN Y    -2.736228     29.029225  KCAL/ANGSTROM
     72         24  O    CARTESIAN Z    -4.692594     -5.565317  KCAL/ANGSTROM
     73         25  H    CARTESIAN X    -7.704874     -6.468068  KCAL/ANGSTROM
     74         25  H    CARTESIAN Y    -2.305352    -23.680973  KCAL/ANGSTROM
     75         25  H    CARTESIAN Z    -4.118391     -6.089413  KCAL/ANGSTROM
     76         26  H    CARTESIAN X    -7.945676     16.230473  KCAL/ANGSTROM
     77         26  H    CARTESIAN Y    -3.647472     -1.292773  KCAL/ANGSTROM
     78         26  H    CARTESIAN Z    -4.691808     15.381042  KCAL/ANGSTROM
     79         27  O    CARTESIAN X    -9.884736    -56.456111  KCAL/ANGSTROM
     80         27  O    CARTESIAN Y     2.217312    -26.399020  KCAL/ANGSTROM
     81         27  O    CARTESIAN Z    -8.009655     -0.399326  KCAL/ANGSTROM
     82         28  H    CARTESIAN X    -9.572664     22.091568  KCAL/ANGSTROM
     83         28  H    CARTESIAN Y     1.740656     12.503401  KCAL/ANGSTROM
     84         28  H    CARTESIAN Z    -7.200095     10.068958  KCAL/ANGSTROM
     85         29  H    CARTESIAN X    -8.994424     39.613988  KCAL/ANGSTROM
     86         29  H    CARTESIAN Y     2.674432     15.424870  KCAL/ANGSTROM
     87         29  H    CARTESIAN Z    -8.238623     -1.244834  KCAL/ANGSTROM
     88         30  O    CARTESIAN X    -7.861889    -31.975685  KCAL/ANGSTROM
     89         30  O    CARTESIAN Y    -5.904619    -25.693488  KCAL/ANGSTROM
     90         30  O    CARTESIAN Z    -4.964684     -8.644918  KCAL/ANGSTROM
     91         31  H    CARTESIAN X    -7.213796     17.698046  KCAL/ANGSTROM
     92         31  H    CARTESIAN Y    -5.354595     13.873651  KCAL/ANGSTROM
     93         31  H    CARTESIAN Z    -5.467817      8.818395  KCAL/ANGSTROM
     94         32  H    CARTESIAN X    -7.556251     10.226182  KCAL/ANGSTROM
     95         32  H    CARTESIAN Y    -5.742371     11.200477  KCAL/ANGSTROM
     96         32  H    CARTESIAN Z    -4.053474      6.378586  KCAL/ANGSTROM
     97         33  O    CARTESIAN X   -10.584028    -35.370385  KCAL/ANGSTROM
     98         33  O    CARTESIAN Y    -1.797235     16.217914  KCAL/ANGSTROM
     99         33  O    CARTESIAN Z    -5.592330    -19.325897  KCAL/ANGSTROM
    100         34  H    CARTESIAN X   -10.002486     14.118404  KCAL/ANGSTROM
    101         34  H    CARTESIAN Y    -1.043757    -17.404406  KCAL/ANGSTROM
    102         34  H    CARTESIAN Z    -5.702083     13.968686  KCAL/ANGSTROM
    103         35  H    CARTESIAN X    -9.911531     25.766279  KCAL/ANGSTROM
    104         35  H    CARTESIAN Y    -2.404362    -12.768320  KCAL/ANGSTROM
    105         35  H    CARTESIAN Z    -5.126048     15.037356  KCAL/ANGSTROM
    106         36  O    CARTESIAN X    -5.525865    -22.993387  KCAL/ANGSTROM
    107         36  O    CARTESIAN Y    -2.223810      3.970077  KCAL/ANGSTROM
    108         36  O    CARTESIAN Z    -5.779422     -0.040806  KCAL/ANGSTROM
    109         37  H    CARTESIAN X    -4.576719     13.440084  KCAL/ANGSTROM
    110         37  H    CARTESIAN Y    -2.189156     -2.573638  KCAL/ANGSTROM
    111         37  H    CARTESIAN Z    -5.990422     -1.077142  KCAL/ANGSTROM
    112         38  H    CARTESIAN X    -5.703557      6.747740  KCAL/ANGSTROM
    113         38  H    CARTESIAN Y    -2.011909     -0.565301  KCAL/ANGSTROM
    114         38  H    CARTESIAN Z    -4.857326      5.363222  KCAL/ANGSTROM
    115         39  O    CARTESIAN X   -12.236914    -43.588004  KCAL/ANGSTROM
    116         39  O    CARTESIAN Y    -0.622670    -15.942662  KCAL/ANGSTROM
    117         39  O    CARTESIAN Z     1.762021    -44.072243  KCAL/ANGSTROM
    118         40  H    CARTESIAN X   -11.234474     44.385040  KCAL/ANGSTROM
    119         40  H    CARTESIAN Y    -0.639119     -4.192244  KCAL/ANGSTROM
    120         40  H    CARTESIAN Z     1.537762     -3.751334  KCAL/ANGSTROM
    121         41  H    CARTESIAN X   -12.344450     -1.832770  KCAL/ANGSTROM
    122         41  H    CARTESIAN Y    -0.162684     17.100010  KCAL/ANGSTROM
    123         41  H    CARTESIAN Z     2.681718     41.160373  KCAL/ANGSTROM
    124         42  O    CARTESIAN X   -12.897008    -20.103382  KCAL/ANGSTROM
    125         42  O    CARTESIAN Y    -3.212244     11.620416  KCAL/ANGSTROM
    126         42  O    CARTESIAN Z     1.581191    -30.782434  KCAL/ANGSTROM
    127         43  H    CARTESIAN X   -12.709022      7.652137  KCAL/ANGSTROM
    128         43  H    CARTESIAN Y    -2.285429      5.893562  KCAL/ANGSTROM
    129         43  H    CARTESIAN Z     1.844797     13.757257  KCAL/ANGSTROM
    130         44  H    CARTESIAN X   -12.398072     16.224785  KCAL/ANGSTROM
    131         44  H    CARTESIAN Y    -3.811901    -15.664848  KCAL/ANGSTROM
    132         44  H    CARTESIAN Z     2.186487     14.839793  KCAL/ANGSTROM
    133         45  O    CARTESIAN X    -6.257886    -38.987859  KCAL/ANGSTROM
    134         45  O    CARTESIAN Y    -1.625412    -15.299695  KCAL/ANGSTROM
    135         45  O    CARTESIAN Z    -3.321423    -35.320524  KCAL/ANGSTROM
    136         46  H    CARTESIAN X    -5.528231     25.171475  KCAL/ANGSTROM
    137         46  H    CARTESIAN Y    -0.905793    -11.040739  KCAL/ANGSTROM
    138         46  H    CARTESIAN Z    -3.278677     18.375906  KCAL/ANGSTROM
    139         47  H    CARTESIAN X    -5.765554     13.460942  KCAL/ANGSTROM
    140         47  H    CARTESIAN Y    -2.162948     25.206752  KCAL/ANGSTROM
    141         47  H    CARTESIAN Z    -2.677294     -2.349965  KCAL/ANGSTROM
    142         48  O    CARTESIAN X    -5.891692    -46.116076  KCAL/ANGSTROM
    143         48  O    CARTESIAN Y     2.111430     -3.574236  KCAL/ANGSTROM
    144         48  O    CARTESIAN Z    -4.338725    -20.361859  KCAL/ANGSTROM
    145         49  H    CARTESIAN X    -5.259413     28.943629  KCAL/ANGSTROM
    146         49  H    CARTESIAN Y     2.903890     10.173536  KCAL/ANGSTROM
    147         49  H    CARTESIAN Z    -4.188846      7.994377  KCAL/ANGSTROM
    148         50  H    CARTESIAN X    -5.366084     16.171404  KCAL/ANGSTROM
    149         50  H    CARTESIAN Y     1.438257     -2.327586  KCAL/ANGSTROM
    150         50  H    CARTESIAN Z    -3.837289      9.601945  KCAL/ANGSTROM
    151         51  O    CARTESIAN X    -9.212619    -54.308797  KCAL/ANGSTROM
    152         51  O    CARTESIAN Y     0.469402     14.765394  KCAL/ANGSTROM
    153         51  O    CARTESIAN Z    -6.109697     -8.155742  KCAL/ANGSTROM
    154         52  H    CARTESIAN X    -9.046627      1.762969  KCAL/ANGSTROM
    155         52  H    CARTESIAN Y     0.989453      5.070414  KCAL/ANGSTROM
    156         52  H    CARTESIAN Z    -5.316498     -0.798456  KCAL/ANGSTROM
    157         53  H    CARTESIAN X    -8.309844     31.781769  KCAL/ANGSTROM
    158         53  H    CARTESIAN Y     0.023638    -15.752588  KCAL/ANGSTROM
    159         53  H    CARTESIAN Z    -6.404408     -0.244694  KCAL/ANGSTROM
    160         54  O    CARTESIAN X    -5.211298    -36.752287  KCAL/ANGSTROM
    161         54  O    CARTESIAN Y     1.469730      9.818693  KCAL/ANGSTROM
    162         54  O    CARTESIAN Z    -6.875801    -48.118527  KCAL/ANGSTROM
    163         55  H    CARTESIAN X    -4.430500     22.640540  KCAL/ANGSTROM
    164         55  H    CARTESIAN Y     0.832183    -19.927537  KCAL/ANGSTROM
    165         55  H    CARTESIAN Z    -6.765093     13.272525  KCAL/ANGSTROM
    166         56  H    CARTESIAN X    -5.295316     17.863330  KCAL/ANGSTROM
    167         56  H    CARTESIAN Y     1.817822     10.291886  KCAL/ANGSTROM
    168         56  H    CARTESIAN Z    -5.908450     34.137692  KCAL/ANGSTROM
    169         57  O    CARTESIAN X    -6.945175    -10.013877  KCAL/ANGSTROM
    170         57  O    CARTESIAN Y    -0.505522    -27.577808  KCAL/ANGSTROM
    171         57  O    CARTESIAN Z    -7.280271    -14.848874  KCAL/ANGSTROM
    172         58  H    CARTESIAN X    -6.287786     24.347540  KCAL/ANGSTROM
    173         58  H    CARTESIAN Y     0.287105     18.037658  KCAL/ANGSTROM
    174         58  H    CARTESIAN Z    -7.334193     -5.561681  KCAL/ANGSTROM
    175         59  H    CARTESIAN X    -6.573758      2.820137  KCAL/ANGSTROM
    176         59  H    CARTESIAN Y    -1.139678      3.547650  KCAL/ANGSTROM
    177         59  H    CARTESIAN Z    -6.660972      8.433329  KCAL/ANGSTROM
    178         60  O    CARTESIAN X    -6.096724    -13.373267  KCAL/ANGSTROM
    179         60  O    CARTESIAN Y    -4.647931     40.540769  KCAL/ANGSTROM
    180         60  O    CARTESIAN Z    -6.753048    -16.977666  KCAL/ANGSTROM
    181         61  H    CARTESIAN X    -5.881678      3.458595  KCAL/ANGSTROM
    182         61  H    CARTESIAN Y    -3.853819    -27.673631  KCAL/ANGSTROM
    183         61  H    CARTESIAN Z    -6.329236      2.227570  KCAL/ANGSTROM
    184         62  H    CARTESIAN X    -5.385225     14.153473  KCAL/ANGSTROM
    185         62  H    CARTESIAN Y    -5.296767     -8.344408  KCAL/ANGSTROM
    186         62  H    CARTESIAN Z    -6.556995     10.839232  KCAL/ANGSTROM
    187         63  O    CARTESIAN X    -8.577575    -28.387537  KCAL/ANGSTROM
    188         63  O    CARTESIAN Y     1.725524    -25.365202  KCAL/ANGSTROM
    189         63  O    CARTESIAN Z    -3.750125     34.250828  KCAL/ANGSTROM
    190         64  H    CARTESIAN X    -8.617002     13.254839  KCAL/ANGSTROM
    191         64  H    CARTESIAN Y     1.105632     25.306133  KCAL/ANGSTROM
    192         64  H    CARTESIAN Z    -3.091803    -20.818159  KCAL/ANGSTROM
    193         65  H    CARTESIAN X    -7.625043      6.070792  KCAL/ANGSTROM
    194         65  H    CARTESIAN Y     1.924928     -5.488097  KCAL/ANGSTROM
    195         65  H    CARTESIAN Z    -3.791530     13.559021  KCAL/ANGSTROM
    196         66  O    CARTESIAN X    -4.482913      4.104888  KCAL/ANGSTROM
    197         66  O    CARTESIAN Y     0.266102      8.757349  KCAL/ANGSTROM
    198         66  O    CARTESIAN Z    -2.949869    -32.646531  KCAL/ANGSTROM
    199         67  H    CARTESIAN X    -4.599158      4.117528  KCAL/ANGSTROM
    200         67  H    CARTESIAN Y     0.365407    -11.032481  KCAL/ANGSTROM
    201         67  H    CARTESIAN Z    -1.952306     15.602402  KCAL/ANGSTROM
    202         68  H    CARTESIAN X    -3.629787    -13.815089  KCAL/ANGSTROM
    203         68  H    CARTESIAN Y    -0.181923     -3.823215  KCAL/ANGSTROM
    204         68  H    CARTESIAN Z    -2.949166     14.278437  KCAL/ANGSTROM
    205         69  O    CARTESIAN X   -10.639318    -23.466200  KCAL/ANGSTROM
    206         69  O    CARTESIAN Y     4.227484    -38.115315  KCAL/ANGSTROM
    207         69  O    CARTESIAN Z    -4.811705    -33.618657  KCAL/ANGSTROM
    208         70  H    CARTESIAN X    -9.785948     28.833666  KCAL/ANGSTROM
    209         70  H    CARTESIAN Y     3.853041     -3.486847  KCAL/ANGSTROM
    210         70  H    CARTESIAN Z    -4.455752     11.595964  KCAL/ANGSTROM
    211         71  H    CARTESIAN X   -10.769625     -4.866782  KCAL/ANGSTROM
    212         71  H    CARTESIAN Y     5.148005     42.776478  KCAL/ANGSTROM
    213         71  H    CARTESIAN Z    -4.362153     20.562271  KCAL/ANGSTROM
    214         72  H    CARTESIAN X   -11.214852      0.927263  KCAL/ANGSTROM
    215         72  H    CARTESIAN Y    -0.064861     -8.259731  KCAL/ANGSTROM
    216         72  H    CARTESIAN Z    -2.579066      5.751158  KCAL/ANGSTROM
    217         73  H    CARTESIAN X    -9.405650    -13.624461  KCAL/ANGSTROM
    218         73  H    CARTESIAN Y    -2.890557     14.818142  KCAL/ANGSTROM
    219         73  H    CARTESIAN Z    -0.332031     -6.384591  KCAL/ANGSTROM




   ATOM   CHEMICAL          X               Y               Z
  NUMBER   SYMBOL      (ANGSTROMS)     (ANGSTROMS)     (ANGSTROMS)
 
     1       C        -11.43533100  *  -0.99736400  *  -2.05952200  *
     2       O        -12.51647200  *  -1.53161000  *  -2.25969900  *
     3       N        -10.44953800  *  -1.46811100  *  -1.28124500  *
     4       H         -9.48455100  *  -0.93012400  *  -1.35179600  *
     5       C        -10.46846700  *  -2.65299000  *  -0.37765600  *
     6       H        -10.85787600  *  -2.30286400  *   0.58435000  *
     7       C        -11.28943500  *  -3.98369800  *  -0.76683200  *
     8       H        -10.85794500  *  -4.87699200  *  -0.33465300  *
     9       H        -12.23322000  *  -3.72624000  *  -0.31134700  *
    10       C        -11.60330300  *  -4.07782700  *  -2.22962000  *
    11       C        -12.95789500  *  -4.22241300  *  -2.58295800  *
    12       H        -13.78582500  *  -4.23017500  *  -1.83565900  *
    13       C        -13.31810900  *  -4.36545700  *  -3.93908600  *
    14       H        -14.30290800  *  -4.62322400  *  -4.16868300  *
    15       C        -12.34250300  *  -4.28719600  *  -4.95117200  *
    16       H        -12.70199500  *  -4.41339000  *  -5.94544600  *
    17       C        -10.68133200  *  -4.27200000  *  -3.21360400  *
    18       H         -9.54752500  *  -4.25710000  *  -3.00393200  *
    19       C        -10.98248800  *  -4.36886400  *  -4.60240600  *
    20       H        -10.25998000  *  -4.47459900  *  -5.41177200  *
    21       O         -8.18880900  *  -0.05703800  *  -1.88456300  *
    22       H         -7.52656500  *  -0.76962600  *  -2.22794800  *
    23       H         -7.73480500  *   0.17135600  *  -1.00127400  *
    24       O         -8.27345500  *  -2.73622800  *  -4.69259400  *
    25       H         -7.70487400  *  -2.30535200  *  -4.11839100  *
    26       H         -7.94567600  *  -3.64747200  *  -4.69180800  *
    27       O         -9.88473600  *   2.21731200  *  -8.00965500  *
    28       H         -9.57266400  *   1.74065600  *  -7.20009500  *
    29       H         -8.99442400  *   2.67443200  *  -8.23862300  *
    30       O         -7.86188900  *  -5.90461900  *  -4.96468400  *
    31       H         -7.21379600  *  -5.35459500  *  -5.46781700  *
    32       H         -7.55625100  *  -5.74237100  *  -4.05347400  *
    33       O        -10.58402800  *  -1.79723500  *  -5.59233000  *
    34       H        -10.00248600  *  -1.04375700  *  -5.70208300  *
    35       H         -9.91153100  *  -2.40436200  *  -5.12604800  *
    36       O         -5.52586500  *  -2.22381000  *  -5.77942200  *
    37       H         -4.57671900  *  -2.18915600  *  -5.99042200  *
    38       H         -5.70355700  *  -2.01190900  *  -4.85732600  *
    39       O        -12.23691400  *  -0.62267000  *   1.76202100  *
    40       H        -11.23447400  *  -0.63911900  *   1.53776200  *
    41       H        -12.34445000  *  -0.16268400  *   2.68171800  *
    42       O        -12.89700800  *  -3.21224400  *   1.58119100  *
    43       H        -12.70902200  *  -2.28542900  *   1.84479700  *
    44       H        -12.39807200  *  -3.81190100  *   2.18648700  *
    45       O         -6.25788600  *  -1.62541200  *  -3.32142300  *
    46       H         -5.52823100  *  -0.90579300  *  -3.27867700  *
    47       H         -5.76555400  *  -2.16294800  *  -2.67729400  *
    48       O         -5.89169200  *   2.11143000  *  -4.33872500  *
    49       H         -5.25941300  *   2.90389000  *  -4.18884600  *
    50       H         -5.36608400  *   1.43825700  *  -3.83728900  *
    51       O         -9.21261900  *   0.46940200  *  -6.10969700  *
    52       H         -9.04662700  *   0.98945300  *  -5.31649800  *
    53       H         -8.30984400  *   0.02363800  *  -6.40440800  *
    54       O         -5.21129800  *   1.46973000  *  -6.87580100  *
    55       H         -4.43050000  *   0.83218300  *  -6.76509300  *
    56       H         -5.29531600  *   1.81782200  *  -5.90845000  *
    57       O         -6.94517500  *  -0.50552200  *  -7.28027100  *
    58       H         -6.28778600  *   0.28710500  *  -7.33419300  *
    59       H         -6.57375800  *  -1.13967800  *  -6.66097200  *
    60       O         -6.09672400  *  -4.64793100  *  -6.75304800  *
    61       H         -5.88167800  *  -3.85381900  *  -6.32923600  *
    62       H         -5.38522500  *  -5.29676700  *  -6.55699500  *
    63       O         -8.57757500  *   1.72552400  *  -3.75012500  *
    64       H         -8.61700200  *   1.10563200  *  -3.09180300  *
    65       H         -7.62504300  *   1.92492800  *  -3.79153000  *
    66       O         -4.48291300  *   0.26610200  *  -2.94986900  *
    67       H         -4.59915800  *   0.36540700  *  -1.95230600  *
    68       H         -3.62978700  *  -0.18192300  *  -2.94916600  *
    69       O        -10.63931800  *   4.22748400  *  -4.81170500  *
    70       H         -9.78594800  *   3.85304100  *  -4.45575200  *
    71       H        -10.76962500  *   5.14800500  *  -4.36215300  *
    72       H        -11.21485200  *  -0.06486100  *  -2.57906600  *
    73       H         -9.40565000  *  -2.89055700  *  -0.33203100  *

                             CARTESIAN COORDINATES

   1    C      -11.435331000    -0.997364000    -2.059522000
   2    O      -12.516472000    -1.531610000    -2.259699000
   3    N      -10.449538000    -1.468111000    -1.281245000
   4    H       -9.484551000    -0.930124000    -1.351796000
   5    C      -10.468467000    -2.652990000    -0.377656000
   6    H      -10.857876000    -2.302864000     0.584350000
   7    C      -11.289435000    -3.983698000    -0.766832000
   8    H      -10.857945000    -4.876992000    -0.334653000
   9    H      -12.233220000    -3.726240000    -0.311347000
  10    C      -11.603303000    -4.077827000    -2.229620000
  11    C      -12.957895000    -4.222413000    -2.582958000
  12    H      -13.785825000    -4.230175000    -1.835659000
  13    C      -13.318109000    -4.365457000    -3.939086000
  14    H      -14.302908000    -4.623224000    -4.168683000
  15    C      -12.342503000    -4.287196000    -4.951172000
  16    H      -12.701995000    -4.413390000    -5.945446000
  17    C      -10.681332000    -4.272000000    -3.213604000
  18    H       -9.547525000    -4.257100000    -3.003932000
  19    C      -10.982488000    -4.368864000    -4.602406000
  20    H      -10.259980000    -4.474599000    -5.411772000
  21    O       -8.188809000    -0.057038000    -1.884563000
  22    H       -7.526565000    -0.769626000    -2.227948000
  23    H       -7.734805000     0.171356000    -1.001274000
  24    O       -8.273455000    -2.736228000    -4.692594000
  25    H       -7.704874000    -2.305352000    -4.118391000
  26    H       -7.945676000    -3.647472000    -4.691808000
  27    O       -9.884736000     2.217312000    -8.009655000
  28    H       -9.572664000     1.740656000    -7.200095000
  29    H       -8.994424000     2.674432000    -8.238623000
  30    O       -7.861889000    -5.904619000    -4.964684000
  31    H       -7.213796000    -5.354595000    -5.467817000
  32    H       -7.556251000    -5.742371000    -4.053474000
  33    O      -10.584028000    -1.797235000    -5.592330000
  34    H      -10.002486000    -1.043757000    -5.702083000
  35    H       -9.911531000    -2.404362000    -5.126048000
  36    O       -5.525865000    -2.223810000    -5.779422000
  37    H       -4.576719000    -2.189156000    -5.990422000
  38    H       -5.703557000    -2.011909000    -4.857326000
  39    O      -12.236914000    -0.622670000     1.762021000
  40    H      -11.234474000    -0.639119000     1.537762000
  41    H      -12.344450000    -0.162684000     2.681718000
  42    O      -12.897008000    -3.212244000     1.581191000
  43    H      -12.709022000    -2.285429000     1.844797000
  44    H      -12.398072000    -3.811901000     2.186487000
  45    O       -6.257886000    -1.625412000    -3.321423000
  46    H       -5.528231000    -0.905793000    -3.278677000
  47    H       -5.765554000    -2.162948000    -2.677294000
  48    O       -5.891692000     2.111430000    -4.338725000
  49    H       -5.259413000     2.903890000    -4.188846000
  50    H       -5.366084000     1.438257000    -3.837289000
  51    O       -9.212619000     0.469402000    -6.109697000
  52    H       -9.046627000     0.989453000    -5.316498000
  53    H       -8.309844000     0.023638000    -6.404408000
  54    O       -5.211298000     1.469730000    -6.875801000
  55    H       -4.430500000     0.832183000    -6.765093000
  56    H       -5.295316000     1.817822000    -5.908450000
  57    O       -6.945175000    -0.505522000    -7.280271000
  58    H       -6.287786000     0.287105000    -7.334193000
  59    H       -6.573758000    -1.139678000    -6.660972000
  60    O       -6.096724000    -4.647931000    -6.753048000
  61    H       -5.881678000    -3.853819000    -6.329236000
  62    H       -5.385225000    -5.296767000    -6.556995000
  63    O       -8.577575000     1.725524000    -3.750125000
  64    H       -8.617002000     1.105632000    -3.091803000
  65    H       -7.625043000     1.924928000    -3.791530000
  66    O       -4.482913000     0.266102000    -2.949869000
  67    H       -4.599158000     0.365407000    -1.952306000
  68    H       -3.629787000    -0.181923000    -2.949166000
  69    O      -10.639318000     4.227484000    -4.811705000
  70    H       -9.785948000     3.853041000    -4.455752000
  71    H      -10.769625000     5.148005000    -4.362153000
  72    H      -11.214852000    -0.064861000    -2.579066000
  73    H       -9.405650000    -2.890557000    -0.332031000


           Empirical Formula: C9 H45 N O18  =    73 atoms



      MOLECULAR POINT GROUP   :   C1  


                EIGENVECTORS  


   Root No.      89        90        91        92        93        94        95        96

                89 A      90 A      91 A      92 A      93 A      94 A      95 A      96 A   

               -13.109   -12.894   -12.819   -12.736   -12.502   -12.260   -11.575   -10.723
  
  S   C    1   -0.0019    0.0000   -0.0167    0.0028    0.0001   -0.0274    0.0019   -0.0010
  Px  C    1    0.0038    0.0000    0.0123    0.0040    0.0006   -0.0583   -0.0798    0.0135
  Py  C    1   -0.0185    0.0000   -0.1024   -0.0092   -0.0028    0.0695    0.0995   -0.0026
  Pz  C    1    0.0059    0.0000    0.0795   -0.0000    0.0048   -0.0414    0.1716   -0.0028
  S   O    2   -0.0008    0.0000   -0.0024   -0.0020    0.0003   -0.0111    0.0003    0.0072
  Px  O    2   -0.0780   -0.0001   -0.1371   -0.0665    0.0005    0.0965    0.1829   -0.0160
  Py  O    2    0.1531    0.0001    0.5042    0.1050    0.0089   -0.1910   -0.1915    0.0012
  Pz  O    2   -0.0391   -0.0002   -0.4017    0.0040   -0.0174    0.1095   -0.3800    0.0045
  S   N    3    0.0177   -0.0000    0.0361    0.0133   -0.0007    0.0241    0.0128   -0.0054
  Px  N    3   -0.0398   -0.0002   -0.1776   -0.0207   -0.0077    0.0892   -0.2315   -0.0060
  Py  N    3   -0.0877    0.0000    0.0912   -0.0973    0.0133    0.0259    0.3975   -0.0040
  Pz  N    3   -0.0784    0.0000   -0.1268   -0.0694    0.0037    0.1297    0.5188    0.0005
  S   H    4   -0.0332   -0.0000   -0.0517   -0.0313   -0.0006    0.0592   -0.0241   -0.0063
  S   C    5   -0.0160   -0.0000    0.0086   -0.0084    0.0005    0.0252   -0.0209   -0.0210
  Px  C    5    0.0366    0.0001    0.1018    0.0502    0.0075   -0.3198    0.1693    0.0318
  Py  C    5   -0.0266    0.0001   -0.0539   -0.0126    0.0013   -0.0958   -0.1379    0.0528
  Pz  C    5   -0.0535    0.0000    0.0960   -0.0402    0.0072   -0.0808   -0.1750    0.0349
  S   H    6   -0.0426    0.0000    0.0328   -0.0622    0.0037    0.0348   -0.2496    0.0194
  S   C    7   -0.0560   -0.0000   -0.0201   -0.0364    0.0045    0.0061    0.0389    0.0058
  Px  C    7    0.0420    0.0001    0.0088   -0.1247   -0.0003    0.4885   -0.0088   -0.0068
  Py  C    7   -0.0283   -0.0002   -0.0431   -0.0049   -0.0028    0.0429    0.1307   -0.0668
  Pz  C    7    0.1568   -0.0002   -0.1389    0.3305   -0.0329   -0.0143    0.0835   -0.0022
  S   H    8    0.0428    0.0001   -0.0225    0.0441   -0.0056    0.1187   -0.0376    0.0476
  S   H    9    0.0318   -0.0001   -0.0640    0.1417   -0.0082   -0.3032    0.0750   -0.0042
  S   C   10   -0.0088    0.0001    0.0314   -0.0495    0.0045   -0.0039   -0.0180    0.0061
  Px  C   10    0.1064    0.0000   -0.1472   -0.1842    0.0036   -0.2303   -0.0049    0.0297
  Py  C   10   -0.0263    0.0001    0.0117   -0.0029    0.0041    0.0476    0.1067    0.2166
  Pz  C   10   -0.1996    0.0001    0.1595   -0.2410    0.0293   -0.0050   -0.0837   -0.0204
  S   C   11    0.0128   -0.0000    0.0047    0.0097   -0.0044    0.0706    0.0022    0.0119
  Px  C   11   -0.1203   -0.0001    0.1520    0.1915   -0.0064    0.2229   -0.0035    0.0190
  Py  C   11    0.0256    0.0002    0.0201    0.0536    0.0006    0.0430    0.0621   -0.3357
  Pz  C   11    0.2304   -0.0001   -0.0796    0.1657   -0.0219    0.1045    0.0131    0.0321
  S   H   12    0.2034   -0.0000   -0.1372   -0.0066   -0.0118   -0.0503    0.0166    0.0116
  S   C   13   -0.0021    0.0000    0.0137    0.0122   -0.0037   -0.0105   -0.0075   -0.0107
  Px  C   13    0.0918   -0.0000   -0.1256   -0.1322   -0.0119   -0.1162    0.0102    0.1422
  Py  C   13    0.0528    0.0002    0.0470   -0.0199    0.0046   -0.0666   -0.0597   -0.5450
  Pz  C   13   -0.2482    0.0001    0.0889   -0.1796    0.0283   -0.0672   -0.0145    0.0310
  S   H   14   -0.0348   -0.0000    0.0808    0.1472    0.0007    0.1115    0.0009   -0.0288
  S   C   15   -0.0063    0.0000    0.0194    0.0137    0.0037    0.0098   -0.0107   -0.0078
  Px  C   15   -0.1223   -0.0000    0.1434    0.1858    0.0105    0.1334    0.0000   -0.0294
  Py  C   15    0.0493    0.0001    0.1142    0.0507    0.0041   -0.0349   -0.1396   -0.1575
  Pz  C   15    0.2177   -0.0001   -0.0783    0.1685   -0.0264    0.0311    0.0144    0.0006
  S   H   16   -0.1441    0.0001    0.0278   -0.1798    0.0209   -0.0533   -0.0088    0.0170
  S   C   17   -0.0066   -0.0000   -0.0081    0.0469   -0.0043   -0.0211    0.0137   -0.0233
  Px  C   17   -0.1241   -0.0001    0.1832    0.2305   -0.0166    0.2223   -0.0045    0.0172
  Py  C   17    0.0483    0.0001    0.0361    0.0755   -0.0048    0.0164    0.0214    0.5625
  Pz  C   17    0.1872   -0.0001   -0.1025    0.2471   -0.0345   -0.0285    0.0355   -0.0804
  S   H   18   -0.0610   -0.0001    0.1112    0.2287   -0.0125    0.1523    0.0108   -0.0073
  S   C   19    0.0191    0.0001   -0.0099   -0.0456   -0.0076   -0.0172   -0.0086   -0.0128
  Px  C   19    0.1103    0.0001   -0.1255   -0.1769   -0.0221   -0.1332   -0.0084    0.0752
  Py  C   19    0.0064    0.0001    0.1282    0.0676    0.0047    0.0117   -0.1005    0.3818
  Pz  C   19   -0.1931    0.0001    0.0673   -0.2618    0.0485   -0.0225   -0.0220   -0.0094
  S   H   20    0.1802    0.0000   -0.1235    0.0251   -0.0298   -0.0737    0.0110    0.0115
  S   O   21    0.0059    0.0001    0.0106    0.0054    0.0002   -0.0097    0.0048    0.0007
  Px  O   21   -0.0509   -0.0005   -0.0652   -0.0340   -0.0006    0.0440   -0.0161   -0.0027
  Py  O   21   -0.0572    0.0004   -0.0723   -0.0364   -0.0006    0.0455   -0.0218   -0.0023
  Pz  O   21    0.0398    0.0001    0.0480    0.0258    0.0003   -0.0309    0.0085    0.0019
  S   H   22   -0.0037   -0.0000   -0.0062   -0.0034   -0.0001    0.0058   -0.0020   -0.0004
  S   H   23   -0.0026   -0.0000   -0.0056   -0.0024   -0.0001    0.0048   -0.0045   -0.0003
  S   O   24   -0.0026   -0.0000    0.0013    0.0008    0.0023    0.0011    0.0009   -0.0055
  Px  O   24   -0.0144   -0.0002    0.0275    0.0333   -0.0362    0.0133   -0.0015    0.0152
  Py  O   24    0.0017   -0.0000    0.0094    0.0331    0.0543    0.0129    0.0002    0.0079
  Pz  O   24    0.0247    0.0002   -0.0408   -0.0655   -0.0084   -0.0314    0.0016   -0.0145
  S   H   25    0.0040   -0.0000   -0.0017    0.0005    0.0016   -0.0011   -0.0007    0.0051
  S   H   26   -0.0008    0.0000   -0.0006   -0.0027    0.0017   -0.0010   -0.0006    0.0022
  S   O   27    0.0004   -0.0002    0.0002    0.0002   -0.0000    0.0000    0.0000   -0.0001
  Px  O   27   -0.0025    0.0016   -0.0012   -0.0018    0.0001   -0.0001    0.0006   -0.0009
  Py  O   27    0.0024   -0.0015    0.0010    0.0017   -0.0001    0.0001   -0.0006    0.0009
  Pz  O   27   -0.0029    0.0024   -0.0016   -0.0024    0.0002   -0.0001    0.0009   -0.0014
  S   H   28   -0.0003    0.0002   -0.0001   -0.0001   -0.0000   -0.0000   -0.0001    0.0003
  S   H   29   -0.0000   -0.0001    0.0000    0.0000   -0.0000    0.0000   -0.0001    0.0001
  S   O   30   -0.0053    0.0001    0.0041    0.0016   -0.0003    0.0020   -0.0004    0.0008
  Px  O   30   -0.0208   -0.0004    0.0275   -0.0473   -0.6091   -0.0083    0.0026   -0.0030
  Py  O   30    0.0391   -0.0005   -0.0461    0.0490    0.7798    0.0025   -0.0030    0.0030
  Pz  O   30    0.0091    0.0001   -0.0103   -0.0047    0.0669   -0.0067   -0.0005    0.0025
  S   H   31    0.0020   -0.0001   -0.0013    0.0001   -0.0017   -0.0001    0.0003   -0.0013
  S   H   32    0.0042   -0.0000   -0.0036   -0.0030   -0.0022   -0.0026    0.0002   -0.0003
  S   O   33   -0.0007   -0.0001   -0.0039   -0.0033    0.0012    0.0004    0.0034   -0.0080
  Px  O   33   -0.0228    0.0012    0.0131   -0.0023   -0.0090    0.0053    0.0031   -0.0272
  Py  O   33    0.0305    0.0011    0.0033    0.0127    0.0010   -0.0071   -0.0069    0.0291
  Pz  O   33    0.0094   -0.0001   -0.0073   -0.0015   -0.0060   -0.0035    0.0107   -0.0278
  S   H   34    0.0044    0.0002    0.0051    0.0056   -0.0009   -0.0008   -0.0049    0.0112
  S   H   35   -0.0041   -0.0000    0.0001   -0.0020    0.0003    0.0000   -0.0006    0.0044
  S   O   36   -0.0006   -0.0022   -0.0005   -0.0004    0.0004   -0.0001    0.0001   -0.0002
  Px  O   36    0.0013    0.0052    0.0013    0.0008   -0.0001   -0.0003    0.0000    0.0002
  Py  O   36   -0.0002   -0.0273    0.0011    0.0007   -0.0021   -0.0004    0.0002   -0.0001
  Pz  O   36    0.0050    0.0093    0.0034    0.0007    0.0002   -0.0024    0.0005   -0.0007
  S   H   37   -0.0001    0.0014    0.0002    0.0005   -0.0002    0.0003   -0.0001    0.0003
  S   H   38    0.0004    0.0011    0.0002    0.0000   -0.0003    0.0001   -0.0000    0.0001
  S   O   39   -0.0030    0.0000    0.0015   -0.0030    0.0002    0.0044    0.0031   -0.0005
  Px  O   39   -0.0027   -0.0000   -0.0065    0.0162   -0.0011   -0.0064    0.0294   -0.0035
  Py  O   39    0.1318   -0.0000   -0.0098    0.0261   -0.0014   -0.0366   -0.0171    0.0011
  Pz  O   39   -0.0620    0.0000    0.0048   -0.0128    0.0006    0.0161    0.0032   -0.0001
  S   H   40    0.0034   -0.0000   -0.0021    0.0043   -0.0002   -0.0035    0.0026    0.0002
  S   H   41    0.0030    0.0000    0.0004   -0.0012    0.0000   -0.0014   -0.0075    0.0008
  S   O   42   -0.0167    0.0000    0.0116   -0.0239    0.0014    0.0378   -0.0072    0.0002
  Px  O   42    0.5307    0.0005    0.1923   -0.3092    0.0137    0.1960    0.0396   -0.0017
  Py  O   42    0.0580    0.0000   -0.0057    0.0181   -0.0011   -0.0256    0.0203   -0.0007
  Pz  O   42   -0.3597   -0.0004   -0.1751    0.2907   -0.0131   -0.2239    0.0042   -0.0013
  S   H   43    0.0130   -0.0000   -0.0085    0.0182   -0.0011   -0.0259    0.0088   -0.0002
  S   H   44    0.0040   -0.0000   -0.0063    0.0115   -0.0007   -0.0196    0.0032   -0.0002
  S   O   45   -0.0007   -0.0002    0.0010   -0.0001   -0.0003   -0.0005    0.0004   -0.0010
  Px  O   45   -0.0045   -0.0010   -0.0073   -0.0030    0.0009    0.0033   -0.0010    0.0007
  Py  O   45    0.0074    0.0019    0.0068    0.0041   -0.0002   -0.0038    0.0009    0.0009
  Pz  O   45    0.0106    0.0025    0.0103    0.0057   -0.0002   -0.0053    0.0011    0.0011
  S   H   46    0.0008    0.0001   -0.0003    0.0003    0.0001    0.0000   -0.0002    0.0009
  S   H   47    0.0002    0.0001   -0.0006    0.0000    0.0002    0.0004   -0.0002    0.0006
  S   O   48   -0.0000    0.0024    0.0002   -0.0000    0.0000   -0.0001    0.0001   -0.0000
  Px  O   48    0.0005    0.0186   -0.0014    0.0000   -0.0001    0.0004   -0.0002   -0.0000
  Py  O   48   -0.0001   -0.0157    0.0003   -0.0000    0.0000   -0.0000   -0.0000    0.0001
  Pz  O   48   -0.0008   -0.0366    0.0024    0.0001    0.0000   -0.0008    0.0003   -0.0001
  S   H   49    0.0001   -0.0036   -0.0002    0.0000   -0.0000    0.0001   -0.0001    0.0000
  S   H   50    0.0000   -0.0010   -0.0001    0.0000   -0.0000    0.0001   -0.0000    0.0000
  S   O   51   -0.0017   -0.0008   -0.0012   -0.0012    0.0002    0.0002    0.0008   -0.0018
  Px  O   51    0.0122    0.0172    0.0054    0.0045   -0.0008   -0.0016   -0.0012    0.0025
  Py  O   51    0.0160   -0.0066    0.0110    0.0118   -0.0008   -0.0015   -0.0039    0.0071
  Pz  O   51   -0.0081    0.0004   -0.0014   -0.0057    0.0005   -0.0014    0.0032   -0.0039
  S   H   52    0.0008   -0.0008    0.0010    0.0007   -0.0001   -0.0001   -0.0005    0.0011
  S   H   53    0.0007    0.0011    0.0001    0.0003   -0.0001    0.0001   -0.0004    0.0007
  S   O   54    0.0000    0.0090   -0.0001   -0.0000   -0.0000    0.0000    0.0000   -0.0000
  Px  O   54    0.0004    0.5779   -0.0001    0.0006    0.0000    0.0001   -0.0001    0.0001
  Py  O   54    0.0007    0.6957   -0.0001    0.0007    0.0000    0.0001   -0.0001    0.0002
  Pz  O   54   -0.0005   -0.2243    0.0011   -0.0002    0.0000   -0.0003    0.0002   -0.0001
  S   H   55   -0.0000   -0.0004    0.0000    0.0000    0.0000    0.0000   -0.0000    0.0000
  S   H   56   -0.0000   -0.0025    0.0001    0.0000    0.0000   -0.0000   -0.0000    0.0000
  S   O   57   -0.0002   -0.0408   -0.0000   -0.0000    0.0000    0.0000    0.0001   -0.0002
  Px  O   57    0.0091    0.2286    0.0009    0.0010    0.0001   -0.0004   -0.0004    0.0004
  Py  O   57   -0.0080    0.2167   -0.0007   -0.0007    0.0000    0.0003    0.0003   -0.0002
  Pz  O   57   -0.0114    0.1634   -0.0014   -0.0029    0.0001   -0.0007    0.0006   -0.0010
  S   H   58    0.0001    0.0273    0.0000    0.0001    0.0000    0.0000   -0.0001    0.0002
  S   H   59    0.0003    0.0078    0.0000   -0.0000   -0.0000   -0.0000   -0.0000    0.0001
  S   O   60   -0.0003    0.0003    0.0002   -0.0001    0.0001    0.0000   -0.0000    0.0001
  Px  O   60    0.0030   -0.0030   -0.0011    0.0002    0.0010   -0.0004    0.0002   -0.0004
  Py  O   60    0.0017   -0.0036   -0.0002   -0.0006   -0.0070   -0.0005    0.0002   -0.0005
  Pz  O   60   -0.0035   -0.0027    0.0016    0.0001    0.0085   -0.0000   -0.0001    0.0003
  S   H   61    0.0001   -0.0001    0.0000   -0.0000   -0.0011    0.0000    0.0000   -0.0000
  S   H   62    0.0001    0.0001   -0.0001    0.0001    0.0005    0.0000   -0.0000    0.0000
  S   O   63   -0.0026   -0.0002   -0.0020   -0.0012    0.0000    0.0005    0.0002   -0.0002
  Px  O   63    0.0067    0.0068    0.0067    0.0037    0.0000   -0.0038    0.0014    0.0001
  Py  O   63   -0.0108   -0.0007   -0.0167   -0.0063   -0.0003    0.0092   -0.0042    0.0003
  Pz  O   63    0.0144    0.0001    0.0197    0.0087    0.0001   -0.0102    0.0038    0.0009
  S   H   64    0.0020   -0.0002    0.0023    0.0008    0.0000   -0.0004   -0.0003    0.0000
  S   H   65    0.0004    0.0000   -0.0010    0.0001   -0.0001    0.0006   -0.0004    0.0001
  S   O   66   -0.0001    0.0003    0.0001   -0.0000   -0.0000   -0.0001    0.0001   -0.0002
  Px  O   66    0.0011    0.0003   -0.0005    0.0003    0.0001    0.0002   -0.0002    0.0004
  Py  O   66    0.0019    0.0013   -0.0008    0.0004    0.0003    0.0002   -0.0002    0.0007
  Pz  O   66    0.0002   -0.0001    0.0003    0.0002   -0.0000   -0.0002    0.0001   -0.0000
  S   H   67    0.0001   -0.0001   -0.0001    0.0000    0.0000    0.0000   -0.0000    0.0001
  S   H   68    0.0001   -0.0003   -0.0001    0.0000    0.0000    0.0001   -0.0000    0.0001
  S   O   69   -0.0001   -0.0000   -0.0001   -0.0000   -0.0000    0.0000    0.0000   -0.0000
  Px  O   69    0.0004    0.0002    0.0007    0.0004    0.0000   -0.0005    0.0002   -0.0000
  Py  O   69   -0.0005   -0.0001   -0.0006   -0.0001   -0.0000    0.0002   -0.0001    0.0000
  Pz  O   69    0.0012    0.0002    0.0017    0.0004    0.0000   -0.0005    0.0002   -0.0000
  S   H   70    0.0001    0.0000    0.0002    0.0000    0.0000   -0.0000   -0.0000    0.0000
  S   H   71    0.0000   -0.0000   -0.0000   -0.0000   -0.0000    0.0000   -0.0000    0.0000
  S   H   72   -0.0387   -0.0001   -0.2520   -0.0144   -0.0084    0.0965   -0.0332    0.0036
  S   H   73    0.0193    0.0001    0.0881    0.0358    0.0055   -0.2103    0.1385    0.0053


   Root No.      97        98        99       100       101       102       103       104

                97 A      98 A      99 A     100 A     101 A     102 A     103 A     104 A   

               -10.500    -0.921    -0.828    -0.795     0.379     1.150     1.443     1.883
  
  S   C    1   -0.0098    0.0207    0.0295    0.0305   -0.3404   -0.1309   -0.0048   -0.1967
  Px  C    1   -0.0003   -0.1439   -0.2345   -0.0963   -0.2735   -0.0941   -0.0049   -0.1207
  Py  C    1    0.0251    0.1699    0.3212    0.1264    0.1142   -0.0453    0.0141   -0.2383
  Pz  C    1    0.0150    0.2648    0.5097    0.2187   -0.1251   -0.0114    0.0173    0.0877
  S   O    2    0.0159   -0.0080    0.0036   -0.0045   -0.0154   -0.0144    0.0021   -0.0354
  Px  O    2    0.0678    0.0554    0.1132    0.0255    0.0988    0.0053    0.0016   -0.0377
  Py  O    2   -0.1201   -0.0890   -0.1788   -0.0577   -0.0529   -0.0011   -0.0005    0.0304
  Pz  O    2   -0.0288   -0.1423   -0.2644   -0.1157    0.0476    0.0018   -0.0063   -0.0350
  S   N    3    0.0002   -0.0063   -0.0312   -0.0278    0.4182    0.0761    0.0153   -0.0153
  Px  N    3   -0.0164    0.0660    0.1260    0.0606   -0.1146   -0.1099    0.0192   -0.1710
  Py  N    3    0.0695   -0.1187   -0.2131   -0.0906   -0.0588   -0.0416   -0.0126   -0.0486
  Pz  N    3    0.0943   -0.1513   -0.2733   -0.1194   -0.0794   -0.0107   -0.0181   -0.0018
  S   H    4    0.0112    0.0235    0.0517    0.0258   -0.3707    0.0069   -0.0450    0.1986
  S   C    5    0.0434    0.0204    0.0243   -0.0335   -0.1577   -0.0386   -0.0840   -0.0045
  Px  C    5   -0.0510   -0.0296   -0.0395    0.0347    0.0792    0.0026    0.0935   -0.0451
  Py  C    5   -0.1113   -0.0300   -0.0131    0.0785   -0.3545   -0.1065    0.1093   -0.1033
  Pz  C    5   -0.0957   -0.0123   -0.0233    0.0189    0.3350    0.0807    0.0750    0.0203
  S   H    6   -0.0667    0.0317    0.0643    0.0357    0.0029   -0.0053    0.0020   -0.0057
  S   C    7    0.0012   -0.0189   -0.0260    0.0059   -0.0219   -0.0165    0.0469   -0.0384
  Px  C    7   -0.0086   -0.0217   -0.0397    0.0153   -0.0165   -0.0202    0.0731   -0.0594
  Py  C    7    0.1568   -0.0257   -0.0475   -0.0121   -0.0072   -0.0232    0.0924   -0.0710
  Pz  C    7   -0.0030   -0.0137   -0.0110    0.0040    0.0194    0.0015    0.0200   -0.0172
  S   H    8   -0.1183   -0.0167   -0.0068    0.0671   -0.0511   -0.0101    0.0562    0.0079
  S   H    9    0.0279   -0.0014   -0.0033   -0.0064   -0.0076   -0.0065    0.0079   -0.0171
  S   C   10   -0.0359   -0.0069   -0.0037    0.0112    0.0354    0.0104    0.0115    0.0025
  Px  C   10    0.0105   -0.0157    0.0079    0.0052    0.0136    0.0005    0.0097   -0.0088
  Py  C   10   -0.4771   -0.1820   -0.1122    0.4883    0.0142    0.0111    0.4473    0.0531
  Pz  C   10    0.0532    0.0236    0.0074   -0.0526    0.0505    0.0105   -0.0347   -0.0071
  S   C   11   -0.0079   -0.0233    0.0078   -0.0010   -0.0061   -0.0055    0.0352   -0.0039
  Px  C   11    0.0435   -0.0643    0.0225    0.0149   -0.0060   -0.0059    0.0427   -0.0081
  Py  C   11   -0.4659    0.5157   -0.2388   -0.0875    0.0070   -0.0044   -0.3899   -0.0373
  Pz  C   11    0.0397   -0.0429    0.0118    0.0219    0.0028    0.0007    0.0148   -0.0026
  S   H   12   -0.0155    0.0218   -0.0171    0.0133   -0.0044   -0.0014   -0.0154   -0.0026
  S   C   13    0.0062    0.0097   -0.0031   -0.0067    0.0051   -0.0010   -0.0058    0.0002
  Px  C   13   -0.0025    0.0759   -0.0693    0.0741    0.0062   -0.0009   -0.0739   -0.0056
  Py  C   13    0.0159   -0.3090    0.3111   -0.3763   -0.0210   -0.0056    0.3299    0.0242
  Pz  C   13   -0.0223    0.0264   -0.0230    0.0236    0.0121    0.0056   -0.0529   -0.0058
  S   H   14    0.0088   -0.0008   -0.0076    0.0192   -0.0006   -0.0002   -0.0185   -0.0043
  S   C   15    0.0342   -0.0081   -0.0065    0.0266    0.0037    0.0015   -0.0120   -0.0008
  Px  C   15   -0.0057    0.0190   -0.0085   -0.0058   -0.0005   -0.0020    0.0060   -0.0007
  Py  C   15    0.5070   -0.1824   -0.1266    0.5524    0.0320    0.0150   -0.3407   -0.0256
  Pz  C   15   -0.0083    0.0030    0.0104   -0.0292    0.0002    0.0020    0.0194    0.0007
  S   H   16   -0.0092    0.0084   -0.0032   -0.0020    0.0020    0.0019   -0.0077   -0.0021
  S   C   17    0.0003    0.0216   -0.0148    0.0091    0.0002   -0.0094    0.0215    0.0091
  Px  C   17   -0.0139   -0.0293    0.0183   -0.0122    0.0071   -0.0127   -0.0208   -0.0004
  Py  C   17   -0.1538   -0.3166    0.3072   -0.3041    0.0175    0.0021   -0.4405   -0.0431
  Pz  C   17    0.0159    0.0404   -0.0370    0.0386    0.0038   -0.0004    0.0299    0.0047
  S   H   18   -0.0108   -0.0171    0.0102   -0.0010   -0.0063    0.0098   -0.0126   -0.0039
  S   C   19    0.0010   -0.0210    0.0142   -0.0045    0.0073   -0.0098   -0.0142    0.0027
  Px  C   19    0.0371    0.0566   -0.0251   -0.0112    0.0034   -0.0124    0.0138    0.0052
  Py  C   19    0.3912    0.4971   -0.1629   -0.2543   -0.0280   -0.0270    0.3795    0.0367
  Pz  C   19   -0.0358   -0.0318    0.0134    0.0115    0.0094    0.0134   -0.0422   -0.0112
  S   H   20    0.0163    0.0082   -0.0075    0.0089   -0.0019    0.0049    0.0029   -0.0018
  S   O   21   -0.0017   -0.0042   -0.0088   -0.0041    0.0974   -0.1149    0.0159   -0.1766
  Px  O   21    0.0044   -0.0005    0.0003    0.0010    0.0528   -0.1800    0.0134   -0.2121
  Py  O   21    0.0041    0.0058    0.0120    0.0056   -0.0939    0.0796   -0.0112    0.0918
  Pz  O   21   -0.0033   -0.0033   -0.0081   -0.0045    0.0804   -0.0409    0.0146   -0.1492
  S   H   22    0.0012    0.0058    0.0114    0.0047   -0.1512    0.2567   -0.0260    0.3180
  S   H   23    0.0008    0.0048    0.0104    0.0049   -0.1460    0.1960   -0.0301    0.3760
  S   O   24   -0.0034   -0.0069    0.0010    0.0067    0.0165   -0.0927   -0.0125    0.0336
  Px  O   24    0.0057    0.0015   -0.0017   -0.0016    0.0199   -0.1059   -0.0042    0.0343
  Py  O   24    0.0014    0.0014    0.0001   -0.0032    0.0003    0.0164    0.0051   -0.0205
  Pz  O   24   -0.0003   -0.0013   -0.0020    0.0042    0.0172   -0.0796   -0.0035    0.0187
  S   H   25    0.0030    0.0079   -0.0004   -0.0076   -0.0294    0.1606    0.0156   -0.0491
  S   H   26    0.0015    0.0067   -0.0009   -0.0073   -0.0186    0.1215    0.0180   -0.0574
  S   O   27   -0.0002   -0.0006    0.0003    0.0003    0.0021   -0.0204   -0.0036    0.0108
  Px  O   27   -0.0012   -0.0009    0.0004    0.0004    0.0032   -0.0299   -0.0052    0.0163
  Py  O   27    0.0012    0.0007   -0.0003   -0.0003   -0.0018    0.0139    0.0023   -0.0051
  Pz  O   27   -0.0019   -0.0013    0.0006    0.0006    0.0038   -0.0319   -0.0053    0.0140
  S   H   28    0.0005    0.0016   -0.0008   -0.0007   -0.0055    0.0522    0.0092   -0.0264
  S   H   29    0.0002    0.0005   -0.0003   -0.0002   -0.0023    0.0254    0.0046   -0.0165
  S   O   30    0.0004    0.0001    0.0002   -0.0006    0.0019   -0.0168   -0.0020    0.0138
  Px  O   30   -0.0014   -0.0008    0.0002    0.0004    0.0032   -0.0274   -0.0036    0.0228
  Py  O   30    0.0006   -0.0004    0.0003   -0.0002    0.0040   -0.0304   -0.0036    0.0215
  Pz  O   30    0.0004    0.0001    0.0003   -0.0009    0.0005   -0.0018   -0.0007   -0.0002
  S   H   31   -0.0005   -0.0002   -0.0002    0.0008   -0.0035    0.0341    0.0039   -0.0310
  S   H   32   -0.0002   -0.0001   -0.0004    0.0011   -0.0024    0.0213    0.0029   -0.0177
  S   O   33   -0.0129   -0.0148    0.0069    0.0085    0.0068   -0.0455   -0.0197    0.0179
  Px  O   33   -0.0119   -0.0252    0.0086    0.0204    0.0142   -0.0868   -0.0346    0.0335
  Py  O   33    0.0284    0.0164   -0.0032   -0.0107   -0.0021   -0.0046    0.0081    0.0004
  Pz  O   33   -0.0190   -0.0137    0.0062    0.0127    0.0050   -0.0266   -0.0141    0.0096
  S   H   34    0.0178    0.0181   -0.0103   -0.0071   -0.0093    0.0735    0.0290   -0.0292
  S   H   35    0.0048    0.0281   -0.0100   -0.0224   -0.0159    0.0980    0.0435   -0.0416
  S   O   36   -0.0002   -0.0010   -0.0003    0.0006    0.0141   -0.0991   -0.0054    0.0600
  Px  O   36    0.0001   -0.0003   -0.0001    0.0001    0.0065   -0.0557   -0.0032    0.0428
  Py  O   36   -0.0001   -0.0004   -0.0002    0.0002    0.0059   -0.0364   -0.0017    0.0177
  Pz  O   36   -0.0004   -0.0014   -0.0007    0.0007    0.0196   -0.1077   -0.0036    0.0407
  S   H   37    0.0002    0.0011    0.0002   -0.0007   -0.0162    0.1307    0.0080   -0.0942
  S   H   38    0.0001    0.0016    0.0007   -0.0008   -0.0268    0.1749    0.0079   -0.0906
  S   O   39    0.0015   -0.0015   -0.0034   -0.0026    0.0041    0.0014   -0.0019   -0.0001
  Px  O   39    0.0090   -0.0020   -0.0053   -0.0046    0.0084    0.0023   -0.0030   -0.0006
  Py  O   39   -0.0032    0.0005    0.0008    0.0003    0.0015    0.0003   -0.0004   -0.0005
  Pz  O   39    0.0001   -0.0005   -0.0010   -0.0007    0.0010    0.0007   -0.0011    0.0002
  S   H   40   -0.0005    0.0017    0.0047    0.0045   -0.0103   -0.0031    0.0043    0.0007
  S   H   41   -0.0024    0.0023    0.0051    0.0035   -0.0053   -0.0020    0.0030    0.0002
  S   O   42   -0.0016   -0.0012   -0.0024   -0.0012   -0.0000    0.0006   -0.0014    0.0013
  Px  O   42    0.0045   -0.0022   -0.0046   -0.0024   -0.0018    0.0003   -0.0016    0.0013
  Py  O   42    0.0036   -0.0017   -0.0034   -0.0018    0.0016    0.0007   -0.0005    0.0001
  Pz  O   42    0.0057   -0.0006   -0.0017   -0.0016    0.0000    0.0002   -0.0011    0.0002
  S   H   43    0.0015    0.0018    0.0037    0.0020   -0.0010   -0.0012    0.0022   -0.0017
  S   H   44    0.0010    0.0013    0.0027    0.0015    0.0009   -0.0005    0.0022   -0.0019
  S   O   45   -0.0007   -0.0021   -0.0012    0.0009    0.0307   -0.1451   -0.0025    0.0321
  Px  O   45    0.0008   -0.0008   -0.0002    0.0006    0.0232   -0.1872   -0.0051    0.1000
  Py  O   45    0.0001   -0.0004   -0.0012   -0.0007    0.0189   -0.0773    0.0013    0.0208
  Pz  O   45   -0.0000   -0.0008   -0.0019   -0.0009    0.0274   -0.0743    0.0035   -0.0291
  S   H   46    0.0006    0.0029    0.0014   -0.0014   -0.0488    0.2908    0.0060   -0.1154
  S   H   47    0.0004    0.0022    0.0013   -0.0009   -0.0368    0.1826    0.0030   -0.0309
  S   O   48   -0.0001   -0.0004   -0.0003    0.0000    0.0122   -0.0927   -0.0017    0.0659
  Px  O   48    0.0001   -0.0004   -0.0002    0.0001    0.0134   -0.1278   -0.0030    0.1159
  Py  O   48    0.0000    0.0002    0.0002   -0.0001   -0.0055    0.0396    0.0007   -0.0287
  Pz  O   48   -0.0002   -0.0004   -0.0004   -0.0000    0.0123   -0.0826   -0.0006    0.0488
  S   H   49    0.0001    0.0004    0.0003   -0.0000   -0.0159    0.1299    0.0024   -0.0986
  S   H   50    0.0000    0.0007    0.0005   -0.0001   -0.0228    0.1902    0.0035   -0.1512
  S   O   51   -0.0026   -0.0030    0.0015    0.0014    0.0097   -0.0698   -0.0102    0.0236
  Px  O   51    0.0034   -0.0012    0.0003    0.0006    0.0119   -0.0907   -0.0108    0.0424
  Py  O   51    0.0099    0.0030   -0.0017   -0.0014    0.0031   -0.0056    0.0037   -0.0167
  Pz  O   51   -0.0057   -0.0026    0.0012    0.0011    0.0104   -0.0486   -0.0048   -0.0088
  S   H   52    0.0017    0.0034   -0.0015   -0.0015   -0.0178    0.1135    0.0135   -0.0159
  S   H   53    0.0011    0.0034   -0.0016   -0.0017   -0.0142    0.1273    0.0191   -0.0712
  S   O   54   -0.0000   -0.0002   -0.0000    0.0001    0.0044   -0.0460   -0.0027    0.0489
  Px  O   54    0.0001    0.0001   -0.0001   -0.0000    0.0009   -0.0125   -0.0004    0.0185
  Py  O   54    0.0002    0.0002   -0.0001   -0.0001   -0.0015    0.0192    0.0023   -0.0225
  Pz  O   54   -0.0001   -0.0003   -0.0001    0.0001    0.0085   -0.0790   -0.0033    0.0768
  S   H   55    0.0000    0.0002    0.0000   -0.0001   -0.0050    0.0583    0.0037   -0.0702
  S   H   56    0.0000    0.0004    0.0001   -0.0001   -0.0096    0.0993    0.0048   -0.1049
  S   O   57   -0.0003   -0.0008    0.0002    0.0005    0.0062   -0.0603   -0.0061    0.0525
  Px  O   57    0.0007   -0.0001   -0.0002    0.0001    0.0056   -0.0581   -0.0041    0.0616
  Py  O   57   -0.0005   -0.0002    0.0002    0.0000    0.0003   -0.0106   -0.0018    0.0158
  Pz  O   57   -0.0011   -0.0012    0.0003    0.0007    0.0078   -0.0663   -0.0067    0.0478
  S   H   58    0.0002    0.0009   -0.0002   -0.0005   -0.0085    0.0950    0.0095   -0.0984
  S   H   59    0.0001    0.0010   -0.0002   -0.0006   -0.0100    0.0969    0.0091   -0.0844
  S   O   60    0.0000   -0.0003    0.0000    0.0002    0.0041   -0.0384   -0.0032    0.0351
  Px  O   60   -0.0001   -0.0003   -0.0000    0.0002    0.0040   -0.0379   -0.0030    0.0363
  Py  O   60   -0.0002   -0.0004   -0.0001    0.0004    0.0040   -0.0291   -0.0018    0.0179
  Pz  O   60    0.0001   -0.0004    0.0000    0.0002    0.0047   -0.0404   -0.0034    0.0338
  S   H   61    0.0000    0.0006    0.0000   -0.0004   -0.0080    0.0738    0.0058   -0.0649
  S   H   62    0.0000    0.0003   -0.0000   -0.0002   -0.0047    0.0499    0.0046   -0.0533
  S   O   63   -0.0004   -0.0012   -0.0013   -0.0004    0.0289   -0.0843    0.0022   -0.0474
  Px  O   63   -0.0003   -0.0009   -0.0011   -0.0004    0.0240   -0.0950    0.0009   -0.0082
  Py  O   63    0.0017    0.0016    0.0021    0.0008   -0.0347    0.0633   -0.0040    0.0737
  Pz  O   63   -0.0003   -0.0009   -0.0029   -0.0013    0.0368   -0.0577    0.0075   -0.0851
  S   H   64    0.0003    0.0019    0.0030    0.0012   -0.0567    0.1273   -0.0079    0.1316
  S   H   65    0.0003    0.0011    0.0011    0.0002   -0.0315    0.1342   -0.0008    0.0230
  S   O   66   -0.0001   -0.0007   -0.0005    0.0002    0.0188   -0.1415   -0.0024    0.1011
  Px  O   66    0.0003    0.0001    0.0001   -0.0001    0.0029   -0.0531   -0.0011    0.0645
  Py  O   66    0.0004    0.0008    0.0004   -0.0004   -0.0134    0.0829    0.0016   -0.0426
  Pz  O   66   -0.0000   -0.0005   -0.0005    0.0000    0.0158   -0.1205   -0.0015    0.0917
  S   H   67    0.0001    0.0009    0.0007   -0.0002   -0.0272    0.2180    0.0032   -0.1694
  S   H   68    0.0001    0.0008    0.0006   -0.0002   -0.0243    0.2069    0.0038   -0.1690
  S   O   69   -0.0000   -0.0001   -0.0000   -0.0000    0.0019   -0.0091   -0.0000   -0.0062
  Px  O   69   -0.0001   -0.0002   -0.0001   -0.0000    0.0038   -0.0155   -0.0000   -0.0096
  Py  O   69    0.0000    0.0000    0.0000    0.0000   -0.0003   -0.0002   -0.0000   -0.0011
  Pz  O   69   -0.0001   -0.0001   -0.0001   -0.0000    0.0024   -0.0107   -0.0000   -0.0073
  S   H   70    0.0000    0.0002    0.0001    0.0000   -0.0051    0.0229    0.0000    0.0157
  S   H   71    0.0000    0.0001    0.0000   -0.0000   -0.0021    0.0118    0.0001    0.0089
  S   H   72    0.0223   -0.0121   -0.0152   -0.0162    0.2321    0.1414    0.0039    0.3393
  S   H   73    0.0023   -0.0142   -0.0259   -0.0091    0.0146    0.0182   -0.0069    0.0411


              NET ATOMIC CHARGES AND DIPOLE CONTRIBUTIONS

  ATOM NO.   TYPE          CHARGE      No. of ELECS.   s-Pop       p-Pop       
    1          C           0.493708        3.5063     1.06698     2.43932
    2          O          -0.796496        6.7965     1.87275     4.92375
    3          N          -0.472782        5.4728     1.58148     3.89130
    4          H           0.392233        0.6078     0.60777
    5          C          -0.004627        4.0046     1.08552     2.91911
    6          H           0.147301        0.8527     0.85270
    7          C          -0.289603        4.2896     1.06915     3.22045
    8          H           0.210042        0.7900     0.78996
    9          H           0.162465        0.8375     0.83753
   10          C           0.019879        3.9801     1.07271     2.90741
   11          C          -0.203737        4.2037     1.10789     3.09585
   12          H           0.181823        0.8182     0.81818
   13          C          -0.251184        4.2512     1.08761     3.16358
   14          H           0.176218        0.8238     0.82378
   15          C          -0.248089        4.2481     1.09060     3.15748
   16          H           0.157253        0.8427     0.84275
   17          C          -0.164654        4.1647     1.09464     3.07002
   18          H           0.242604        0.7574     0.75740
   19          C          -0.183065        4.1831     1.10450     3.07856
   20          H           0.191157        0.8088     0.80884
   21          O          -0.759263        6.7593     1.85099     4.90828
   22          H           0.405883        0.5941     0.59412
   23          H           0.394602        0.6054     0.60540
   24          O          -0.741428        6.7414     1.79131     4.95012
   25          H           0.374794        0.6252     0.62521
   26          H           0.372696        0.6273     0.62730
   27          O          -0.850031        6.8500     1.85067     4.99937
   28          H           0.384255        0.6157     0.61575
   29          H           0.435959        0.5640     0.56404
   30          O          -0.714585        6.7146     1.83818     4.87640
   31          H           0.329334        0.6707     0.67067
   32          H           0.374691        0.6253     0.62531
   33          O          -0.867567        6.8676     1.84030     5.02727
   34          H           0.389186        0.6108     0.61081
   35          H           0.425023        0.5750     0.57498
   36          O          -0.780452        6.7805     1.79425     4.98620
   37          H           0.403466        0.5965     0.59653
   38          H           0.385811        0.6142     0.61419
   39          O          -0.839778        6.8398     1.84534     4.99444
   40          H           0.428218        0.5718     0.57178
   41          H           0.434729        0.5653     0.56527
   42          O          -0.806818        6.8068     1.82219     4.98462
   43          H           0.394651        0.6053     0.60535
   44          H           0.388288        0.6117     0.61171
   45          O          -0.791899        6.7919     1.84589     4.94601
   46          H           0.389898        0.6101     0.61010
   47          H           0.415425        0.5846     0.58458
   48          O          -0.758953        6.7590     1.84744     4.91151
   49          H           0.416416        0.5836     0.58358
   50          H           0.374192        0.6258     0.62581
   51          O          -0.800432        6.8004     1.82768     4.97275
   52          H           0.374415        0.6256     0.62559
   53          H           0.418974        0.5810     0.58103
   54          O          -0.793400        6.7934     1.85199     4.94141
   55          H           0.415291        0.5847     0.58471
   56          H           0.386105        0.6139     0.61389
   57          O          -0.829808        6.8298     1.82536     5.00445
   58          H           0.413160        0.5868     0.58684
   59          H           0.393805        0.6062     0.60620
   60          O          -0.794385        6.7944     1.80011     4.99428
   61          H           0.383527        0.6165     0.61647
   62          H           0.404428        0.5956     0.59557
   63          O          -0.754437        6.7544     1.79721     4.95722
   64          H           0.352281        0.6477     0.64772
   65          H           0.390676        0.6093     0.60932
   66          O          -0.749741        6.7497     1.82261     4.92713
   67          H           0.418622        0.5814     0.58138
   68          H           0.398242        0.6018     0.60176
   69          O          -0.802998        6.8030     1.84279     4.96021
   70          H           0.374979        0.6250     0.62502
   71          H           0.427515        0.5725     0.57248
   72          H          -0.006573        1.0066     1.00657
   73          H           0.212565        0.7874     0.78743
 DIPOLE           X         Y         Z       TOTAL
 POINT-CHG.    43.784     2.734    28.955    52.564
 HYBRID         2.258     0.871     1.451     2.822
 SUM           46.042     3.605    30.406    55.294


          ATOMIC ORBITAL ELECTRON POPULATIONS

     Atom    s        px        py        pz   
    1  C   1.06698   0.78880   0.85345   0.79707
    2  O   1.87275   1.42665   1.75059   1.74651
    3  N   1.58148   1.19811   1.32515   1.36805
    4  H   0.60777
    5  C   1.08552   1.12792   0.85100   0.94019
    6  H   0.85270
    7  C   1.06915   1.16408   1.06415   0.99222
    8  H   0.78996
    9  H   0.83753
   10  C   1.07271   0.97152   0.93519   1.00070
   11  C   1.10789   1.06815   0.99066   1.03703
   12  H   0.81818
   13  C   1.08761   1.09471   1.05346   1.01541
   14  H   0.82378
   15  C   1.09060   1.02945   1.04507   1.08297
   16  H   0.84275
   17  C   1.09464   1.11631   0.99048   0.96322
   18  H   0.75740
   19  C   1.10450   1.02999   0.99129   1.05728
   20  H   0.80884
   21  O   1.85099   1.63209   1.71978   1.55641
   22  H   0.59412
   23  H   0.60540
   24  O   1.79131   1.70176   1.45221   1.79614
   25  H   0.62521
   26  H   0.62730
   27  O   1.85067   1.55122   1.79952   1.64862
   28  H   0.61575
   29  H   0.56404
   30  O   1.83818   1.66596   1.78767   1.42277
   31  H   0.67067
   32  H   0.62531
   33  O   1.84030   1.58017   1.55094   1.89616
   34  H   0.61081
   35  H   0.57498
   36  O   1.79425   1.50622   1.94276   1.53722
   37  H   0.59653
   38  H   0.61419
   39  O   1.84534   1.51720   1.87785   1.59939
   40  H   0.57178
   41  H   0.56527
   42  O   1.82219   1.82514   1.43667   1.72281
   43  H   0.60535
   44  H   0.61171
   45  O   1.84589   1.59867   1.60042   1.74692
   46  H   0.61010
   47  H   0.58458
   48  O   1.84744   1.60745   1.48866   1.81540
   49  H   0.58358
   50  H   0.62581
   51  O   1.82768   1.59076   1.76061   1.62138
   52  H   0.62559
   53  H   0.58103
   54  O   1.85199   1.68123   1.73760   1.52258
   55  H   0.58471
   56  H   0.61389
   57  O   1.82536   1.67438   1.55496   1.77511
   58  H   0.58684
   59  H   0.60620
   60  O   1.80011   1.66658   1.47671   1.85099
   61  H   0.61647
[...]
  
  S  H  62  -0.00001    -0.00000    -0.00085    -0.00000     0.00000    -0.00006
  
  S  O  63  -0.00004     0.00027    -0.00001     0.00004    -0.00001    -0.00109
 PX  O  63   0.00000     0.00008     0.00001     0.00002    -0.00000    -0.00053
 PY  O  63   0.00006    -0.00037     0.00005    -0.00005     0.00001     0.00128
 PZ  O  63  -0.00005     0.00037    -0.00008    -0.00002    -0.00001     0.00112
  
  S  H  64   0.00016    -0.00094     0.00009    -0.00005     0.00002     0.00108
  
  S  H  65   0.00000    -0.00022    -0.00002    -0.00004     0.00000     0.00131
  
  S  O  66   0.00001     0.00002     0.00007     0.00000    -0.00000    -0.00005
 PX  O  66  -0.00000    -0.00001    -0.00003    -0.00000     0.00000     0.00003
 PY  O  66  -0.00001    -0.00002    -0.00011    -0.00000     0.00000     0.00001
 PZ  O  66   0.00000     0.00002     0.00001     0.00000    -0.00000     0.00001
  
  S  H  67  -0.00001    -0.00003    -0.00008    -0.00000     0.00000     0.00004
  
  S  H  68  -0.00001    -0.00002    -0.00008    -0.00000     0.00000     0.00006
  
  S  O  69  -0.00000     0.00001     0.00000    -0.00019    -0.00000    -0.00007
 PX  O  69  -0.00000     0.00002     0.00000    -0.00031    -0.00000    -0.00018
 PY  O  69   0.00000    -0.00000    -0.00000    -0.00000     0.00000     0.00006
 PZ  O  69  -0.00000     0.00001     0.00000    -0.00021    -0.00000    -0.00008
  
  S  H  70  -0.00000    -0.00002    -0.00000     0.00076     0.00000     0.00016
  
  S  H  71  -0.00000    -0.00001    -0.00000     0.00029     0.00000     0.00006
  
  S  H  72   0.00098    -0.00772     0.00004    -0.00000     0.00005     0.00001
  
  S  H  73   0.00009     0.00679     0.00010    -0.00000    -0.00047     0.00001




    ROOT NO.   91          92          93          94          95          96

           -13.28842   -13.24924   -13.10779   -12.53111   -12.07189   -11.99087
  
  
  S  C   1   0.00001    -0.00004    -0.00030     0.00000     0.00777     0.00704
 PX  C   1   0.00000    -0.00001    -0.00130     0.00001    -0.00586    -0.01093
 PY  C   1   0.00001    -0.00004     0.00133    -0.00002    -0.00771    -0.00086
 PZ  C   1  -0.00001     0.00002     0.00158     0.00001    -0.00041     0.00340
  
  S  O   2   0.00000    -0.00000    -0.00007    -0.00000    -0.00306    -0.00324
 PX  O   2   0.00000     0.00000     0.00026    -0.00001    -0.00561    -0.00722
 PY  O   2  -0.00000     0.00001    -0.00044     0.00001    -0.00120    -0.00228
 PZ  O   2   0.00000    -0.00000    -0.00063    -0.00000    -0.00113    -0.00238
  
  S  N   3   0.00001     0.00000     0.00071    -0.00003    -0.00278    -0.00042
 PX  N   3   0.00002    -0.00001     0.00002    -0.00003     0.00128     0.00085
 PY  N   3   0.00001    -0.00000    -0.00082     0.00001    -0.00011    -0.00117
 PZ  N   3  -0.00000    -0.00000    -0.00013     0.00002    -0.00015    -0.00154
  
  S  H   4  -0.00001     0.00001    -0.00086     0.00003     0.00364     0.00049
  
  S  C   5  -0.00000    -0.00000    -0.00799    -0.00002    -0.01325    -0.00790
 PX  C   5   0.00000     0.00000     0.00352    -0.00000     0.01259     0.00798
 PY  C   5  -0.00000    -0.00000    -0.00315     0.00006     0.02122     0.01083
 PZ  C   5   0.00000     0.00000    -0.00670     0.00000     0.00350     0.00605
  
  S  H   6   0.00000    -0.00000     0.01435     0.00001     0.00300     0.00221
  
  S  C   7   0.00000    -0.00000    -0.01136     0.00009     0.00670     0.00207
 PX  C   7   0.00000    -0.00000     0.01579    -0.00002     0.01001     0.00436
 PY  C   7   0.00000    -0.00000    -0.00202    -0.00002     0.03169     0.00037
 PZ  C   7   0.00000    -0.00000    -0.00553    -0.00018    -0.00131    -0.00029
  
  S  H   8  -0.00000    -0.00000     0.00042     0.00003     0.01752     0.01307
  
  S  H   9  -0.00000    -0.00000     0.02671    -0.00000    -0.00001     0.00006
  
  S  C  10  -0.00000     0.00000     0.00084     0.00022     0.00850     0.00647
 PX  C  10  -0.00000     0.00000     0.00172     0.00002    -0.00293    -0.00689
 PY  C  10   0.00000    -0.00000    -0.00051     0.00033     0.61594     0.21991
 PZ  C  10   0.00000     0.00000     0.00074    -0.00031    -0.06124    -0.02296
  
  S  C  11   0.00000    -0.00000     0.00054    -0.00028    -0.00451    -0.00492
 PX  C  11   0.00001    -0.00000     0.00117    -0.00026    -0.02434    -0.08516
 PY  C  11  -0.00002    -0.00000     0.00020    -0.00016     0.22081     0.63249
 PZ  C  11   0.00000    -0.00000    -0.00001     0.00000    -0.01716    -0.07038
  
  S  H  12  -0.00000    -0.00000    -0.00013     0.00006     0.00795     0.01423
  
  S  C  13   0.00000    -0.00000    -0.00001    -0.00034     0.00243     0.01643
 PX  C  13   0.00000    -0.00000    -0.00003    -0.00028     0.03496    -0.12358
 PY  C  13  -0.00000     0.00000     0.00005    -0.00017    -0.16330     0.65497
 PZ  C  13  -0.00000     0.00000    -0.00002     0.00031     0.01123    -0.01996
  
  S  H  14   0.00000    -0.00000     0.00011     0.00013    -0.00019    -0.00069
  
  S  C  15   0.00000    -0.00000     0.00001     0.00061    -0.00687     0.00527
 PX  C  15  -0.00000     0.00000     0.00011     0.00057     0.00588    -0.01062
 PY  C  15   0.00003    -0.00000    -0.00010     0.00059    -0.14259     0.20087
 PZ  C  15  -0.00000     0.00000    -0.00002     0.00036     0.00638    -0.01102
  
  S  H  16  -0.00000     0.00000     0.00002     0.00021     0.00300    -0.00128
  
  S  C  17   0.00001    -0.00000    -0.00132    -0.00181    -0.03954     0.00540
 PX  C  17   0.00002     0.00000     0.00095    -0.00229     0.04620    -0.00713
 PY  C  17   0.00003     0.00000     0.00007    -0.00028     0.65700    -0.13638
 PZ  C  17  -0.00000    -0.00000    -0.00088    -0.00086    -0.09633     0.01908
  
  S  H  18  -0.00000    -0.00000    -0.00008     0.00386     0.00738    -0.00164
  
  S  C  19   0.00002     0.00000     0.00024    -0.00369    -0.00084     0.00547
 PX  C  19   0.00002    -0.00000     0.00015    -0.00228     0.02671    -0.02024
 PY  C  19   0.00002    -0.00000     0.00005    -0.00060     0.26454    -0.18028
 PZ  C  19  -0.00002     0.00000     0.00033     0.00320    -0.01301     0.00750
  
  S  H  20   0.00001    -0.00000    -0.00022     0.00654     0.00010    -0.00068
  
  S  O  21   0.00004    -0.00002     0.00006    -0.00005    -0.00017     0.00003
 PX  O  21   0.00008    -0.00001    -0.00002    -0.00011    -0.00006     0.00008
 PY  O  21  -0.00003    -0.00001    -0.00007     0.00011     0.00025    -0.00003
 PZ  O  21  -0.00004     0.00001     0.00006     0.00004    -0.00010    -0.00003
  
  S  H  22  -0.00010     0.00002    -0.00009     0.00015     0.00048    -0.00017
  
  S  H  23  -0.00004     0.00002    -0.00009     0.00004     0.00025    -0.00006
  
  S  O  24   0.00017    -0.00000     0.00000    -0.00732    -0.00167     0.00103
 PX  O  24   0.00030    -0.00000     0.00000    -0.00669    -0.00056     0.00016
 PY  O  24   0.00008    -0.00000     0.00000     0.01334     0.00075    -0.00059
 PZ  O  24   0.00005    -0.00000     0.00000    -0.00163    -0.00068     0.00065
  
  S  H  25  -0.00023     0.00000    -0.00000     0.00374     0.00398    -0.00238
  
  S  H  26  -0.00019     0.00000    -0.00000     0.03166     0.00393    -0.00233
  
  S  O  27   0.00026     0.00019     0.00000    -0.00001    -0.00004     0.00003
 PX  O  27   0.00048     0.00027     0.00000    -0.00001    -0.00005     0.00004
 PY  O  27  -0.00026    -0.00005    -0.00000     0.00001     0.00005    -0.00004
 PZ  O  27   0.00051     0.00020     0.00000    -0.00002    -0.00009     0.00007
  
  S  H  28  -0.00064    -0.00063    -0.00000     0.00002     0.00013    -0.00015
  
  S  H  29  -0.00033    -0.00043    -0.00000     0.00000     0.00002    -0.00003
  
  S  O  30   0.00001    -0.00000     0.00000    -0.00145     0.00022    -0.00011
 PX  O  30   0.00004    -0.00000     0.00000    -0.61367     0.00015    -0.00000
 PY  O  30   0.00005    -0.00000     0.00000     0.78575     0.00010    -0.00007
 PZ  O  30  -0.00001     0.00000    -0.00000     0.06778     0.00027    -0.00017
  
  S  H  31  -0.00002    -0.00000    -0.00000    -0.00100    -0.00046     0.00023
  
  S  H  32  -0.00001     0.00000    -0.00000    -0.00070    -0.00107     0.00039
  
  S  O  33   0.00017    -0.00000     0.00000    -0.00057    -0.00392     0.00239
 PX  O  33   0.00043    -0.00000     0.00001    -0.00134    -0.00677     0.00470
 PY  O  33   0.00032     0.00000     0.00000     0.00064     0.00470    -0.00245
 PZ  O  33  -0.00001    -0.00000     0.00000    -0.00067    -0.00413     0.00261
  
  S  H  34  -0.00041     0.00000    -0.00001     0.00041     0.00500    -0.00381
  
  S  H  35  -0.00015     0.00000    -0.00001     0.00197     0.01955    -0.01239
  
  S  O  36   0.00150    -0.00000     0.00000    -0.00016    -0.00008     0.00006
 PX  O  36  -0.00005    -0.00000     0.00000     0.00007     0.00000     0.00000
 PY  O  36   0.00176    -0.00000     0.00000    -0.00002    -0.00003     0.00002
 PZ  O  36  -0.00028    -0.00000     0.00000    -0.00030    -0.00014     0.00010
  
  S  H  37  -0.00211     0.00000    -0.00000     0.00017     0.00011    -0.00010
  
  S  H  38  -0.00172     0.00000    -0.00000     0.00022     0.00023    -0.00018
  
  S  O  39  -0.00000    -0.00000    -0.00069    -0.00000    -0.00016    -0.00009
 PX  O  39   0.00000    -0.00000    -0.00131    -0.00000    -0.00031    -0.00023
 PY  O  39   0.00000     0.00000    -0.00007    -0.00000    -0.00003     0.00001
 PZ  O  39  -0.00000    -0.00000    -0.00017     0.00000    -0.00003     0.00000
  
  S  H  40   0.00000     0.00000     0.00237     0.00000     0.00080     0.00031
  
  S  H  41   0.00000     0.00000     0.00104     0.00000     0.00027     0.00013
  
  S  O  42  -0.00000     0.00000    -0.00449     0.00000    -0.00004    -0.00003
 PX  O  42  -0.00000    -0.00000     0.78564     0.00000    -0.00004    -0.00005
 PY  O  42  -0.00000    -0.00000     0.02064    -0.00000    -0.00004    -0.00004
 PZ  O  42  -0.00000    -0.00000    -0.61712    -0.00000    -0.00000    -0.00009
  
  S  H  43   0.00000    -0.00000    -0.00018    -0.00000     0.00009     0.00007
  
  S  H  44   0.00000     0.00000    -0.00001    -0.00000     0.00008     0.00004
  
  S  O  45   0.00021    -0.00000     0.00000    -0.00031    -0.00016     0.00011
 PX  O  45   0.00034    -0.00000    -0.00000     0.00006    -0.00001     0.00003
 PY  O  45   0.00008    -0.00000     0.00001     0.00017     0.00004    -0.00002
 PZ  O  45  -0.00021    -0.00000     0.00001     0.00008    -0.00001     0.00000
  
  S  H  46  -0.00040     0.00000    -0.00001     0.00047     0.00038    -0.00029
  
  S  H  47  -0.00019     0.00000    -0.00000     0.00035     0.00031    -0.00023
  
  S  O  48   0.00074    -0.00001     0.00000    -0.00001    -0.00001     0.00001
 PX  O  48   0.00110     0.00000     0.00000    -0.00001    -0.00001     0.00001
 PY  O  48  -0.00076     0.00000    -0.00000     0.00002     0.00001    -0.00001
 PZ  O  48   0.00004    -0.00001     0.00000    -0.00001    -0.00001     0.00001
  
  S  H  49  -0.00050     0.00001    -0.00000     0.00001     0.00001    -0.00001
  
  S  H  50  -0.00237     0.00001    -0.00000     0.00002     0.00002    -0.00002
  
  S  O  51   0.00205    -0.00001     0.00000    -0.00006    -0.00023     0.00018
 PX  O  51   0.00506    -0.00002     0.00000    -0.00008    -0.00003     0.00011
 PY  O  51  -0.00151     0.00000     0.00000     0.00009     0.00034    -0.00015
 PZ  O  51  -0.00054    -0.00008     0.00000    -0.00005    -0.00023     0.00016
  
  S  H  52  -0.00160     0.00012    -0.00000     0.00007     0.00038    -0.00042
  
  S  H  53  -0.00729    -0.00001    -0.00000     0.00013     0.00037    -0.00043
  
  S  O  54   0.03128    -0.00000     0.00000    -0.00000    -0.00000     0.00000
 PX  O  54   0.62700    -0.00000    -0.00000     0.00000     0.00000    -0.00000
 PY  O  54   0.73647    -0.00000     0.00000     0.00001     0.00001    -0.00001
 PZ  O  54  -0.21359    -0.00000     0.00000    -0.00001    -0.00001     0.00001
  
  S  H  55   0.00201     0.00000    -0.00000     0.00000     0.00001    -0.00001
  
  S  H  56  -0.00252     0.00000    -0.00000     0.00001     0.00001    -0.00001
  
  S  O  57   0.02387     0.00000     0.00000    -0.00005    -0.00004     0.00004
 PX  O  57   0.03683    -0.00000     0.00000    -0.00005    -0.00001     0.00002
 PY  O  57   0.03200     0.00000    -0.00000     0.00006     0.00002    -0.00001
 PZ  O  57   0.00589     0.00000     0.00000    -0.00011    -0.00008     0.00006
  
  S  H  58  -0.12026    -0.00000    -0.00000     0.00004     0.00005    -0.00006
  
  S  H  59  -0.01770    -0.00000    -0.00000     0.00011     0.00011    -0.00011
  
  S  O  60   0.00019    -0.00000     0.00000     0.00045    -0.00001     0.00001
 PX  O  60   0.00020    -0.00000     0.00000     0.00093    -0.00001     0.00001
 PY  O  60   0.00038    -0.00000     0.00000    -0.00089    -0.00005     0.00004
 PZ  O  60   0.00025    -0.00000     0.00000     0.00012    -0.00002     0.00001
  
  S  H  61  -0.00043     0.00000    -0.00000     0.00001     0.00006    -0.00006
  
  S  H  62  -0.00013     0.00000    -0.00000    -0.00261    -0.00000    -0.00001
  
  S  O  63   0.00029    -0.00012     0.00001    -0.00002    -0.00004     0.00004
 PX  O  63   0.00048    -0.00009     0.00001    -0.00001    -0.00002     0.00002
 PY  O  63  -0.00014     0.00010    -0.00002     0.00003     0.00007    -0.00005
 PZ  O  63  -0.00012    -0.00011     0.00002    -0.00001    -0.00002     0.00002
  
  S  H  64  -0.00021     0.00033    -0.00003     0.00003     0.00010    -0.00011
  
  S  H  65  -0.00075     0.00020    -0.00001     0.00001     0.00004    -0.00007
  
  S  O  66   0.00018    -0.00000     0.00000    -0.00004    -0.00002     0.00002
 PX  O  66  -0.00001     0.00000    -0.00000     0.00004     0.00001    -0.00001
 PY  O  66   0.00002    -0.00000    -0.00000     0.00009     0.00004    -0.00003
 PZ  O  66  -0.00001    -0.00000     0.00000    -0.00001    -0.00001     0.00001
  
  S  H  67  -0.00019     0.00000    -0.00000     0.00004     0.00004    -0.00004
  
  S  H  68  -0.00026     0.00000    -0.00000     0.00004     0.00004    -0.00003
  
  S  O  69   0.00001     0.00022     0.00000    -0.00000    -0.00000     0.00000
 PX  O  69   0.00003    -0.50401     0.00000    -0.00000    -0.00000     0.00001
 PY  O  69  -0.00001    -0.43582    -0.00000     0.00000     0.00000    -0.00000
 PZ  O  69   0.00002     0.74567     0.00000    -0.00000    -0.00000     0.00000
  
  S  H  70  -0.00003    -0.00000    -0.00000     0.00000     0.00000    -0.00001
  
  S  H  71  -0.00001    -0.00000    -0.00000     0.00000     0.00000    -0.00000
  
  S  H  72   0.00000     0.00006     0.00021    -0.00001    -0.00029    -0.00143
  
  S  H  73  -0.00000     0.00000     0.00117     0.00000     0.00167     0.00071




    ROOT NO.   97

           -11.98137
  
  
  S  C   1  -0.00371
 PX  C   1   0.00423
 PY  C   1   0.00106
 PZ  C   1  -0.00135
  
  S  O   2   0.00170
 PX  O   2   0.00330
 PY  O   2  -0.00066
 PZ  O   2   0.00091
  
  S  N   3   0.00058
 PX  N   3  -0.00080
 PY  N   3   0.00075
 PZ  N   3   0.00105
  
  S  H   4  -0.00035
  
  S  C   5   0.00678
 PX  C   5  -0.00714
 PY  C   5  -0.01045
 PZ  C   5  -0.00442
  
  S  H   6  -0.00155
  
  S  C   7  -0.00177
 PX  C   7  -0.00472
 PY  C   7  -0.00491
 PZ  C   7  -0.00091
  
  S  H   8  -0.01096
  
  S  H   9   0.00029
  
  S  C  10  -0.00555
 PX  C  10   0.00140
 PY  C  10  -0.17210
 PZ  C  10   0.01789
  
  S  C  11   0.00467
 PX  C  11   0.02114
 PY  C  11  -0.17654
 PZ  C  11   0.01302
  
  S  H  12  -0.00834
  
  S  C  13  -0.00131
 PX  C  13  -0.04284
 PY  C  13   0.22831
 PZ  C  13  -0.01390
  
  S  H  14   0.00160
  
  S  C  15   0.02676
 PX  C  15  -0.01105
 PY  C  15   0.67675
 PZ  C  15  -0.03533
  
  S  H  16  -0.00181
  
  S  C  17  -0.00123
 PX  C  17   0.00864
 PY  C  17   0.17284
 PZ  C  17  -0.02482
  
  S  H  18   0.00085
  
  S  C  19  -0.01779
 PX  C  19   0.05981
 PY  C  19   0.62127
 PZ  C  19  -0.03434
  
  S  H  20   0.00276
  
  S  O  21  -0.00006
 PX  O  21  -0.00009
 PY  O  21   0.00008
 PZ  O  21   0.00004
  
  S  H  22   0.00021
  
  S  H  23   0.00006
  
  S  O  24  -0.00206
 PX  O  24  -0.00036
 PY  O  24   0.00076
 PZ  O  24  -0.00109
  
  S  H  25   0.00436
  
  S  H  26   0.00441
  
  S  O  27  -0.00010
 PX  O  27  -0.00012
 PY  O  27   0.00011
 PZ  O  27  -0.00021
  
  S  H  28   0.00046
  
  S  H  29   0.00009
  
  S  O  30   0.00018
 PX  O  30   0.00016
 PY  O  30   0.00006
 PZ  O  30   0.00024
  
  S  H  31  -0.00046
  
  S  H  32  -0.00075
  
  S  O  33  -0.00698
 PX  O  33  -0.01232
 PY  O  33   0.00251
 PZ  O  33  -0.00514
  
  S  H  34   0.01445
  
  S  H  35   0.03684
  
  S  O  36  -0.00010
 PX  O  36   0.00000
 PY  O  36  -0.00004
 PZ  O  36  -0.00017
  
  S  H  37   0.00015
  
  S  H  38   0.00030
  
  S  O  39   0.00008
 PX  O  39   0.00018
 PY  O  39   0.00000
 PZ  O  39   0.00001
  
  S  H  40  -0.00033
  
  S  H  41  -0.00013
  
  S  O  42   0.00002
 PX  O  42   0.00003
 PY  O  42   0.00003
 PZ  O  42   0.00007
  
  S  H  43  -0.00006
  
  S  H  44  -0.00006
  
  S  O  45  -0.00019
 PX  O  45  -0.00003
 PY  O  45   0.00005
 PZ  O  45   0.00000
  
  S  H  46   0.00046
  
  S  H  47   0.00035
  
  S  O  48  -0.00001
 PX  O  48  -0.00001
 PY  O  48   0.00001
 PZ  O  48  -0.00001
  
  S  H  49   0.00002
  
  S  H  50   0.00004
  
  S  O  51  -0.00056
 PX  O  51  -0.00034
 PY  O  51   0.00041
 PZ  O  51  -0.00047
  
  S  H  52   0.00120
  
  S  H  53   0.00122
  
  S  O  54  -0.00001
 PX  O  54   0.00001
 PY  O  54   0.00001
 PZ  O  54  -0.00001
  
  S  H  55   0.00002
  
  S  H  56   0.00002
  
  S  O  57  -0.00009
 PX  O  57  -0.00001
 PY  O  57   0.00001
 PZ  O  57  -0.00014
  
  S  H  58   0.00014
  
  S  H  59   0.00023
  
  S  O  60  -0.00002
 PX  O  60  -0.00002
 PY  O  60  -0.00007
 PZ  O  60  -0.00003
  
  S  H  61   0.00009
  
  S  H  62   0.00001
  
  S  O  63  -0.00008
 PX  O  63  -0.00004
 PY  O  63   0.00010
 PZ  O  63  -0.00001
  
  S  H  64   0.00017
  
  S  H  65   0.00012
  
  S  O  66  -0.00003
 PX  O  66   0.00001
 PY  O  66   0.00005
 PZ  O  66  -0.00002
  
  S  H  67   0.00005
  
  S  H  68   0.00005
  
  S  O  69  -0.00001
 PX  O  69  -0.00001
 PY  O  69   0.00000
 PZ  O  69  -0.00001
  
  S  H  70   0.00002
  
  S  H  71   0.00001
  
  S  H  72   0.00110
  
  S  H  73  -0.00058

          BONDING CONTRIBUTION OF EACH M.O.

  1.9187  1.8962  1.5127  1.7391  1.7163  0.0252  1.6601  1.6979  0.0471  1.6797
  0.0472  0.0698  1.6293  1.6444  1.6738  1.6686  1.6700  1.7088  0.0284  1.6589
  1.6423  1.6420  0.0006  1.6398  1.6822  1.9938  0.0016  1.9508  1.6424  0.0272
  1.6789  1.6235  1.6948  1.7177  1.6338  0.0339  0.0235  0.0000  1.5708  1.5896
  0.0206  0.0601  1.9964  1.6151  1.6251  1.6482  1.9927  1.9963  0.0014  1.7171
  1.9899  1.5568  0.0050  1.6193  1.7563  1.6340  0.0274  1.5664  1.6504  0.0508
  1.9936  0.0037  1.6304  1.9876  1.9397  1.9516  1.9346  1.9227  1.9699  1.9342
  1.9311  1.8875  2.0000  1.9494  0.9405  0.1617  0.1578  0.1585  0.2446  0.1526
  0.0496  0.0542  0.1009  0.1385  0.0001  1.2240  0.0140  0.0001  0.0666  0.1120
  0.1140  0.0000  0.0091  0.0090  2.0504  1.9632  1.9656 -2.0318 -2.1167 -2.0268
 -1.9082 -1.8017 -1.9863 -1.8152 -1.7595 -1.7618 -1.9416 -1.9350 -1.7110 -1.7312
 -1.9127 -1.7489 -1.7042 -1.9545 -1.7184 -1.7312 -1.8899 -1.7341 -1.8447 -1.6993
 -1.7520 -1.9034 -1.7305 -1.9733 -1.6990 -1.6861 -1.9032 -1.7724 -1.9725 -1.7253
 -1.8481 -1.9135 -1.6518 -1.8907 -1.8731 -1.9484 -1.6516 -1.9465 -1.9617 -1.6822
 -1.6758 -1.9502 -1.6719 -1.8905 -1.6858 -1.6926 -1.9440 -1.6973 -1.6783 -1.6902
 -1.7343 -1.7119 -1.7088 -1.7416 -1.7385 -1.6894 -1.8825

           DATA FOR GRAPH WRITTEN TO DISK

 **********************
 *                    *
 * JOB ENDED NORMALLY *
 *                    *
 **********************



 TOTAL JOB TIME:             1.59 SECONDS

 == MOPAC DONE ==
