 *******************************************************************************
 ** Site#: 34139        For non-commercial use only    Version 20.015L 64BITS **
 *******************************************************************************
 ** Cite this program as: MOPAC2016, Version: 20.015L, James J. P. Stewart,   **
 ** Stewart Computational Chemistry, web: HTTP://OpenMOPAC.net. Days left: 276**
 *******************************************************************************
 **                                                                           **
 **                                MOPAC2016                                  **
 **                                                                           **
 *******************************************************************************

                              PM7 CALCULATION RESULTS

 *******************************************************************************
 *  CALCULATION DONE:                                Tue Apr 14 16:44:37 2020  *
 *  PM7        - The PM7 Hamiltonian to be used
 *  QMMM       - Generate energies and gradients for use in MM codes
 *  DIPOLE     - PRINT DIPOLE INSTEAD OF ENERGY IN TRAJECTORIES
 *  GEO-OK     - OVERRIDE INTERATOMIC DISTANCE AND OTHER SAFETY CHECKS
 *
 *
 *
 *                 CHARGE ON SYSTEM = 0
 *
 *
 *
 *  LET        - OVERRIDE SOME SAFETY CHECKS
 *  XYZ        - CARTESIAN COORDINATE SYSTEM TO BE USED
 *  FORCE      - FORCE CALCULATION SPECIFIED
 *  1SCF       - DO 1 SCF AND THEN STOP 
 *  T=         - A TIME OF      2.0 MINUTES REQUESTED
 *  DUMP=N     - RESTART FILE WRITTEN EVERY  7200.000 SECONDS
 *  CUTOFF=    - CUTOFF FOR NDDO AND DIPOLE INTERACTIONS =  9.00A
 *  AUX        - OUTPUT AUXILIARY INFORMATION
 *  GRADIENTS  - ALL GRADIENTS TO BE PRINTED
 *  VECTORS    - FINAL EIGENVECTORS TO BE PRINTED
 *  EIGEN      - CONVERT LMO's INTO EIGENVECTORS
 *  LARGE      - EXPANDED OUTPUT TO BE PRINTED
 *  AIGOUT     - IN ARC FILE, INCLUDE AB-INITIO GEOMETRY
 *  GRAPH      - GENERATE FILE FOR GRAPHICS
 *  ALLVEC     - PRINT ALL EIGENVECTORS
 *  LOCALIZE   - LOCALIZED ORBITALS TO BE PRINTED
 *  PI         - BONDS MATRIX, SPLIT INTO SIGMA-PI-DELL COMPONENTS, TO BE PRINTED
 *******************************************************************************
PM7 XYZ T=2M 1SCF LOCALIZE AIGOUT GRAPH GRAPHF LARGE DIPOLE PI FORCE CUTOFF=9.0 AUX LET GRAD QMMM GEO-OK EIGEN VECTORS ALLVEC CHARGE=0
 Test System

   ATOM   CHEMICAL          X               Y               Z
  NUMBER   SYMBOL      (ANGSTROMS)     (ANGSTROMS)     (ANGSTROMS)
 
     1       C        -10.79438100  *   0.88242100  *   0.62810700  *
     2       O        -11.03975100  *  -0.11939700  *   1.25888700  *
     3       N         -9.53715700  *   1.13584800  *   0.19219400  *
     4       H         -9.33819100  *   1.95779300  *  -0.36166300  *
     5       C         -8.29611200  *   0.27629700  *   0.43351800  *
     6       H         -8.27511600  *  -0.11304000  *   1.48775400  *
     7       C         -8.18471800  *  -0.93783000  *  -0.43873200  *
     8       H         -7.28944300  *  -1.54396200  *  -0.18380600  *
     9       H         -9.10998400  *  -1.58428800  *  -0.16760100  *
    10       C         -8.37444700  *  -0.82922200  *  -1.95164200  *
    11       C         -9.26776000  *  -1.74289200  *  -2.51125600  *
    12       H         -9.84419900  *  -2.43175600  *  -1.84683000  *
    13       C         -9.63879700  *  -1.63153400  *  -3.84917400  *
    14       H        -10.55392900  *  -2.13713300  *  -4.26366400  *
    15       C         -8.89080100  *  -0.90703800  *  -4.69880000  *
    16       H         -8.95297700  *  -0.83135600  *  -5.76988500  *
    17       C         -7.47034300  *  -0.16488300  *  -2.80076900  *
    18       H         -6.68003600  *   0.49884400  *  -2.42012500  *
    19       C         -7.74044300  *  -0.21811300  *  -4.19060200  *
    20       H         -7.05838100  *   0.28471800  *  -4.81935800  *
    21       O        -10.11130400  *   1.84855100  *  -2.85556400  *
    22       H         -9.91665800  *   1.08223200  *  -3.46344500  *
    23       H         -9.45737800  *   2.55103100  *  -3.00337400  *
    24       O         -7.45962400  *  -3.32814900  *  -5.28251900  *
    25       H         -7.58043500  *  -2.87510800  *  -4.37717200  *
    26       H         -8.17644400  *  -3.95311300  *  -5.29257700  *
    27       O        -10.22122600  *   1.87819500  *  -5.39954900  *
    28       H         -9.89111800  *   1.41474600  *  -6.14426400  *
    29       H         -9.73908400  *   2.74384700  *  -5.30864500  *
    30       O        -13.26718800  *  -4.28103400  *  -5.21516000  *
    31       H        -13.03147000  *  -5.19930400  *  -4.90353500  *
    32       H        -13.44842800  *  -3.99414500  *  -4.32184900  *
    33       O        -11.05018600  *  -2.28573200  *  -6.42690500  *
    34       H        -11.35964600  *  -3.14596700  *  -6.09613600  *
    35       H        -10.20902700  *  -2.61809800  *  -6.89120800  *
    36       O         -5.12655100  *   0.55872200  *  -7.10700400  *
    37       H         -5.68107400  *  -0.23479100  *  -7.14838400  *
    38       H         -5.70161700  *   1.36139600  *  -7.13946200  *
    39       O        -12.87818300  *  -2.16199200  *   0.81234300  *
    40       H        -12.63083800  *  -3.00007400  *   1.27069800  *
    41       H        -12.06542700  *  -1.64244400  *   0.92572800  *
    42       O        -10.51045600  *  -2.09148900  *   3.08086600  *
    43       H        -11.26586500  *  -1.98611700  *   3.68742700  *
    44       H        -10.49413700  *  -1.17920000  *   2.64883800  *
    45       O         -7.12938400  *  -1.34315400  *  -7.05866600  *
    46       H         -7.14889800  *  -1.62077400  *  -8.01338900  *
    47       H         -7.31188800  *  -2.10561600  *  -6.39450100  *
    48       O         -9.90267400  *   3.94287600  *  -1.07310800  *
    49       H        -10.05116700  *   4.50756000  *  -1.89250400  *
    50       H         -8.98022000  *   4.07632600  *  -0.93000400  *
    51       O        -13.08788100  *  -0.67872100  *  -6.74461700  *
    52       H        -12.45503000  *  -0.22018300  *  -7.41066100  *
    53       H        -12.76277500  *  -1.51658800  *  -6.70930900  *
    54       O         -8.95670000  *   0.56545300  *  -7.52556800  *
    55       H         -8.67621700  *   1.18649500  *  -8.11380400  *
    56       H         -8.30206500  *  -0.15225100  *  -7.25360200  *
    57       O        -11.29066000  *   0.29627500  *  -8.51559200  *
    58       H        -10.43609200  *   0.34514500  *  -8.10489600  *
    59       H        -11.23679100  *  -0.54634900  *  -9.07213500  *
    60       O         -8.52537300  *  -4.88720700  *   0.00839500  *
    61       H         -9.00329300  *  -4.94467000  *  -0.77006900  *
    62       H         -7.58554400  *  -5.00450700  *  -0.35367800  *
    63       O         -8.12248500  *   4.49293000  *   1.38014100  *
    64       H         -7.55851800  *   3.72742200  *   1.25182700  *
    65       H         -7.45756000  *   5.19560200  *   1.76244700  *
    66       O         -7.65911900  *   3.51900500  *  -2.85334900  *
    67       H         -7.18366800  *   3.41277900  *  -2.05637900  *
    68       H         -6.98102800  *   3.39291700  *  -3.57131100  *
    69       O        -12.96705100  *   1.08981900  *  -4.66976200  *
    70       H        -12.12599800  *   1.45877400  *  -4.32607800  *
    71       H        -12.64882800  *   0.45257300  *  -5.36365200  *
    72       H        -11.61474000  *   1.54710400  *   0.35735500  *
    73       H         -7.41056100  *   0.88740800  *   0.25903700  *
 


          CARTESIAN COORDINATES 

    NO.       ATOM           X           Y           Z

     1         C        -10.7944      0.8824      0.6281
     2         O        -11.0398     -0.1194      1.2589
     3         N         -9.5372      1.1358      0.1922
     4         H         -9.3382      1.9578     -0.3617
     5         C         -8.2961      0.2763      0.4335
     6         H         -8.2751     -0.1130      1.4878
     7         C         -8.1847     -0.9378     -0.4387
     8         H         -7.2894     -1.5440     -0.1838
     9         H         -9.1100     -1.5843     -0.1676
    10         C         -8.3744     -0.8292     -1.9516
    11         C         -9.2678     -1.7429     -2.5113
    12         H         -9.8442     -2.4318     -1.8468
    13         C         -9.6388     -1.6315     -3.8492
    14         H        -10.5539     -2.1371     -4.2637
    15         C         -8.8908     -0.9070     -4.6988
    16         H         -8.9530     -0.8314     -5.7699
    17         C         -7.4703     -0.1649     -2.8008
    18         H         -6.6800      0.4988     -2.4201
    19         C         -7.7404     -0.2181     -4.1906
    20         H         -7.0584      0.2847     -4.8194
    21         O        -10.1113      1.8486     -2.8556
    22         H         -9.9167      1.0822     -3.4634
    23         H         -9.4574      2.5510     -3.0034
    24         O         -7.4596     -3.3281     -5.2825
    25         H         -7.5804     -2.8751     -4.3772
    26         H         -8.1764     -3.9531     -5.2926
    27         O        -10.2212      1.8782     -5.3995
    28         H         -9.8911      1.4147     -6.1443
    29         H         -9.7391      2.7438     -5.3086
    30         O        -13.2672     -4.2810     -5.2152
    31         H        -13.0315     -5.1993     -4.9035
    32         H        -13.4484     -3.9941     -4.3218
    33         O        -11.0502     -2.2857     -6.4269
    34         H        -11.3596     -3.1460     -6.0961
    35         H        -10.2090     -2.6181     -6.8912
    36         O         -5.1266      0.5587     -7.1070
    37         H         -5.6811     -0.2348     -7.1484
    38         H         -5.7016      1.3614     -7.1395
    39         O        -12.8782     -2.1620      0.8123
    40         H        -12.6308     -3.0001      1.2707
    41         H        -12.0654     -1.6424      0.9257
    42         O        -10.5105     -2.0915      3.0809
    43         H        -11.2659     -1.9861      3.6874
    44         H        -10.4941     -1.1792      2.6488
    45         O         -7.1294     -1.3432     -7.0587
    46         H         -7.1489     -1.6208     -8.0134
    47         H         -7.3119     -2.1056     -6.3945
    48         O         -9.9027      3.9429     -1.0731
    49         H        -10.0512      4.5076     -1.8925
    50         H         -8.9802      4.0763     -0.9300
    51         O        -13.0879     -0.6787     -6.7446
    52         H        -12.4550     -0.2202     -7.4107
    53         H        -12.7628     -1.5166     -6.7093
    54         O         -8.9567      0.5655     -7.5256
    55         H         -8.6762      1.1865     -8.1138
    56         H         -8.3021     -0.1523     -7.2536
    57         O        -11.2907      0.2963     -8.5156
    58         H        -10.4361      0.3451     -8.1049
    59         H        -11.2368     -0.5463     -9.0721
    60         O         -8.5254     -4.8872      0.0084
    61         H         -9.0033     -4.9447     -0.7701
    62         H         -7.5855     -5.0045     -0.3537
    63         O         -8.1225      4.4929      1.3801
    64         H         -7.5585      3.7274      1.2518
    65         H         -7.4576      5.1956      1.7624
    66         O         -7.6591      3.5190     -2.8533
    67         H         -7.1837      3.4128     -2.0564
    68         H         -6.9810      3.3929     -3.5713
    69         O        -12.9671      1.0898     -4.6698
    70         H        -12.1260      1.4588     -4.3261
    71         H        -12.6488      0.4526     -5.3637
    72         H        -11.6147      1.5471      0.3574
    73         H         -7.4106      0.8874      0.2590

 General Reference for PM7:
 "Optimization of Parameters for Semiempirical Methods VI: More Modifications to the 
 NDDO Approximations and Re-optimization of Parameters", J. J. P. Stewart, J. Mol. Mod., 1:32, 19 (2013)
 http://www.springerlink.com/openurl.asp?genre=article&id=doi:10.1007/s00894-012-1667-x

           Empirical Formula: C9 H45 N O18  =    73 atoms



      MOLECULAR POINT GROUP   :   C1  


      RHF CALCULATION, NO. OF DOUBLY OCCUPIED LEVELS = 97


 -------------------------------------------------------------------------------
 PM7 XYZ T=2M 1SCF LOCALIZE AIGOUT GRAPH GRAPHF LARGE DIPOLE PI FORCE CUTOFF=9.0 AUX LET GRAD QMMM GEO-OK EIGEN VECTORS ALLVEC CHARGE=0
 Test System



     1SCF WAS SPECIFIED, SO BFGS WAS NOT USED                 
     SCF FIELD WAS ACHIEVED                                   


                              PM7 CALCULATION
                                                       MOPAC2016 (Version: 20.015L)
                                                       Tue Apr 14 16:44:38 2020
                                                       No. of days remaining = 276




          FINAL HEAT OF FORMATION =      -1289.97903 KCAL/MOL =   -5397.27227 KJ/MOL


          TOTAL ENERGY            =      -7230.20319 EV
          ELECTRONIC ENERGY       =     -59484.29782 EV  POINT GROUP:     C1  
          CORE-CORE REPULSION     =      52254.09463 EV
          COSMO AREA              =        503.52 SQUARE ANGSTROMS
          COSMO VOLUME            =        659.95 CUBIC ANGSTROMS

          GRADIENT NORM           =        289.93723 = 33.93459 PER ATOM
          IONIZATION POTENTIAL    =          9.029018 EV
          HOMO LUMO ENERGIES (EV) =         -9.029  0.481
          NO. OF FILLED LEVELS    =         97
          MOLECULAR WEIGHT        =        455.4504

          MOLECULAR DIMENSIONS (Angstroms)

            Atom       Atom       Distance
            H    65    H    31    13.54835
            H    43    O    36    12.64886
            O    69    H    62     8.90138


          SCF CALCULATIONS        =          1
 
          WALL-CLOCK TIME         =          0.449 SECONDS
          COMPUTATION TIME        =          0.231 SECONDS

          LARGEST ATOMIC GRADIENTS

          Atom     Label                     Cartesian Gradients           Cartesian Coordinates       |Gradient|
                                           X          Y          Z        X          Y          Z

            15       C                 -84.803    -49.013     15.268   -8.89080   -0.90704   -4.69880     99.131
             7       C                  44.964     30.356     31.560   -8.18472   -0.93783   -0.43873     62.763
             2       O                   6.229     48.800    -35.809  -11.03975   -0.11940    1.25889     60.849
            51       O                 -13.318    -49.462     31.963  -13.08788   -0.67872   -6.74462     60.378
            13       C                  39.915     42.019     -7.943   -9.63880   -1.63153   -3.84917     58.497
            33       O                 -40.408     36.113     17.525  -11.05019   -2.28573   -6.42690     56.957
            63       O                 -47.883    -25.234    -11.385   -8.12248    4.49293    1.38014     55.309
            57       O                  21.472     39.351     26.770  -11.29066    0.29628   -8.51559     52.213
            10       C                 -43.422     24.336    -14.566   -8.37445   -0.82922   -1.95164     51.863
            60       O                 -50.107      3.638      6.754   -8.52537   -4.88721    0.00839     50.691
            19       C                  12.656     10.533    -43.902   -7.74044   -0.21811   -4.19060     46.888



       FINAL  POINT  AND  DERIVATIVES

   PARAMETER     ATOM    TYPE            VALUE        GRADIENT
      1          1  C    CARTESIAN X   -10.794381    -16.066040  KCAL/ANGSTROM
      2          1  C    CARTESIAN Y     0.882421    -13.543737  KCAL/ANGSTROM
      3          1  C    CARTESIAN Z     0.628107     31.335919  KCAL/ANGSTROM
      4          2  O    CARTESIAN X   -11.039751      6.228984  KCAL/ANGSTROM
      5          2  O    CARTESIAN Y    -0.119397     48.800104  KCAL/ANGSTROM
      6          2  O    CARTESIAN Z     1.258887    -35.809272  KCAL/ANGSTROM
      7          3  N    CARTESIAN X    -9.537157    -44.253027  KCAL/ANGSTROM
      8          3  N    CARTESIAN Y     1.135848      7.210425  KCAL/ANGSTROM
      9          3  N    CARTESIAN Z     0.192194    -10.500010  KCAL/ANGSTROM
     10          4  H    CARTESIAN X    -9.338191     17.332027  KCAL/ANGSTROM
     11          4  H    CARTESIAN Y     1.957793     -1.896760  KCAL/ANGSTROM
     12          4  H    CARTESIAN Z    -0.361663      9.222631  KCAL/ANGSTROM
     13          5  C    CARTESIAN X    -8.296112     27.601584  KCAL/ANGSTROM
     14          5  C    CARTESIAN Y     0.276297    -14.319138  KCAL/ANGSTROM
     15          5  C    CARTESIAN Z     0.433518     -4.519459  KCAL/ANGSTROM
     16          6  H    CARTESIAN X    -8.275116      8.640351  KCAL/ANGSTROM
     17          6  H    CARTESIAN Y    -0.113040     -9.907432  KCAL/ANGSTROM
     18          6  H    CARTESIAN Z     1.487754     -2.470518  KCAL/ANGSTROM
     19          7  C    CARTESIAN X    -8.184718     44.963677  KCAL/ANGSTROM
     20          7  C    CARTESIAN Y    -0.937830     30.356222  KCAL/ANGSTROM
     21          7  C    CARTESIAN Z    -0.438732     31.559701  KCAL/ANGSTROM
     22          8  H    CARTESIAN X    -7.289443      2.066349  KCAL/ANGSTROM
     23          8  H    CARTESIAN Y    -1.543962     -2.980748  KCAL/ANGSTROM
     24          8  H    CARTESIAN Z    -0.183806      3.386629  KCAL/ANGSTROM
     25          9  H    CARTESIAN X    -9.109984    -17.002246  KCAL/ANGSTROM
     26          9  H    CARTESIAN Y    -1.584288     -2.152842  KCAL/ANGSTROM
     27          9  H    CARTESIAN Z    -0.167601    -10.418822  KCAL/ANGSTROM
     28         10  C    CARTESIAN X    -8.374447    -43.421693  KCAL/ANGSTROM
     29         10  C    CARTESIAN Y    -0.829222     24.335579  KCAL/ANGSTROM
     30         10  C    CARTESIAN Z    -1.951642    -14.565600  KCAL/ANGSTROM
     31         11  C    CARTESIAN X    -9.267760     31.253223  KCAL/ANGSTROM
     32         11  C    CARTESIAN Y    -1.742892    -11.359839  KCAL/ANGSTROM
     33         11  C    CARTESIAN Z    -2.511256    -16.723555  KCAL/ANGSTROM
     34         12  H    CARTESIAN X    -9.844199     -6.312135  KCAL/ANGSTROM
     35         12  H    CARTESIAN Y    -2.431756     -9.411345  KCAL/ANGSTROM
     36         12  H    CARTESIAN Z    -1.846830      9.140724  KCAL/ANGSTROM
     37         13  C    CARTESIAN X    -9.638797     39.914916  KCAL/ANGSTROM
     38         13  C    CARTESIAN Y    -1.631534     42.018581  KCAL/ANGSTROM
     39         13  C    CARTESIAN Z    -3.849174     -7.943424  KCAL/ANGSTROM
     40         14  H    CARTESIAN X   -10.553929    -10.768651  KCAL/ANGSTROM
     41         14  H    CARTESIAN Y    -2.137133     -4.141710  KCAL/ANGSTROM
     42         14  H    CARTESIAN Z    -4.263664    -13.711897  KCAL/ANGSTROM
     43         15  C    CARTESIAN X    -8.890801    -84.803383  KCAL/ANGSTROM
     44         15  C    CARTESIAN Y    -0.907038    -49.012681  KCAL/ANGSTROM
     45         15  C    CARTESIAN Z    -4.698800     15.267986  KCAL/ANGSTROM
     46         16  H    CARTESIAN X    -8.952977     22.484360  KCAL/ANGSTROM
     47         16  H    CARTESIAN Y    -0.831356      3.702672  KCAL/ANGSTROM
     48         16  H    CARTESIAN Z    -5.769885      6.038912  KCAL/ANGSTROM
     49         17  C    CARTESIAN X    -7.470343     31.241514  KCAL/ANGSTROM
     50         17  C    CARTESIAN Y    -0.164883    -14.422525  KCAL/ANGSTROM
     51         17  C    CARTESIAN Z    -2.800769     23.866188  KCAL/ANGSTROM
     52         18  H    CARTESIAN X    -6.680036      5.294967  KCAL/ANGSTROM
     53         18  H    CARTESIAN Y     0.498844     12.036448  KCAL/ANGSTROM
     54         18  H    CARTESIAN Z    -2.420125      1.792336  KCAL/ANGSTROM
     55         19  C    CARTESIAN X    -7.740443     12.655819  KCAL/ANGSTROM
     56         19  C    CARTESIAN Y    -0.218113     10.532772  KCAL/ANGSTROM
     57         19  C    CARTESIAN Z    -4.190602    -43.901538  KCAL/ANGSTROM
     58         20  H    CARTESIAN X    -7.058381     -7.494020  KCAL/ANGSTROM
     59         20  H    CARTESIAN Y     0.284718     -6.196624  KCAL/ANGSTROM
     60         20  H    CARTESIAN Z    -4.819358     18.624633  KCAL/ANGSTROM
     61         21  O    CARTESIAN X   -10.111304    -15.256501  KCAL/ANGSTROM
     62         21  O    CARTESIAN Y     1.848551     12.995335  KCAL/ANGSTROM
     63         21  O    CARTESIAN Z    -2.855564      9.106424  KCAL/ANGSTROM
     64         22  H    CARTESIAN X    -9.916658      7.645607  KCAL/ANGSTROM
     65         22  H    CARTESIAN Y     1.082232    -21.983450  KCAL/ANGSTROM
     66         22  H    CARTESIAN Z    -3.463445    -10.340837  KCAL/ANGSTROM
     67         23  H    CARTESIAN X    -9.457378      8.274698  KCAL/ANGSTROM
     68         23  H    CARTESIAN Y     2.551031     10.362681  KCAL/ANGSTROM
     69         23  H    CARTESIAN Z    -3.003374     -3.627057  KCAL/ANGSTROM
     70         24  O    CARTESIAN X    -7.459624      4.620406  KCAL/ANGSTROM
     71         24  O    CARTESIAN Y    -3.328149    -17.498582  KCAL/ANGSTROM
     72         24  O    CARTESIAN Z    -5.282519    -24.664460  KCAL/ANGSTROM
     73         25  H    CARTESIAN X    -7.580435     -7.876029  KCAL/ANGSTROM
     74         25  H    CARTESIAN Y    -2.875108      7.904021  KCAL/ANGSTROM
     75         25  H    CARTESIAN Z    -4.377172     24.026774  KCAL/ANGSTROM
     76         26  H    CARTESIAN X    -8.176444      4.033791  KCAL/ANGSTROM
     77         26  H    CARTESIAN Y    -3.953113      6.302036  KCAL/ANGSTROM
     78         26  H    CARTESIAN Z    -5.292577      3.594793  KCAL/ANGSTROM
     79         27  O    CARTESIAN X   -10.221226    -19.271983  KCAL/ANGSTROM
     80         27  O    CARTESIAN Y     1.878195    -20.831093  KCAL/ANGSTROM
     81         27  O    CARTESIAN Z    -5.399549     -2.791192  KCAL/ANGSTROM
     82         28  H    CARTESIAN X    -9.891118     -2.471032  KCAL/ANGSTROM
     83         28  H    CARTESIAN Y     1.414746      3.330696  KCAL/ANGSTROM
     84         28  H    CARTESIAN Z    -6.144264      6.854784  KCAL/ANGSTROM
     85         29  H    CARTESIAN X    -9.739084     16.052882  KCAL/ANGSTROM
     86         29  H    CARTESIAN Y     2.743847     24.195359  KCAL/ANGSTROM
     87         29  H    CARTESIAN Z    -5.308645      4.495076  KCAL/ANGSTROM
     88         30  O    CARTESIAN X   -13.267188    -17.796051  KCAL/ANGSTROM
     89         30  O    CARTESIAN Y    -4.281034     35.704589  KCAL/ANGSTROM
     90         30  O    CARTESIAN Z    -5.215160    -19.684056  KCAL/ANGSTROM
     91         31  H    CARTESIAN X   -13.031470      2.118170  KCAL/ANGSTROM
     92         31  H    CARTESIAN Y    -5.199304     -6.198295  KCAL/ANGSTROM
     93         31  H    CARTESIAN Z    -4.903535     25.069087  KCAL/ANGSTROM
     94         32  H    CARTESIAN X   -13.448428     11.689245  KCAL/ANGSTROM
     95         32  H    CARTESIAN Y    -3.994145    -29.365453  KCAL/ANGSTROM
     96         32  H    CARTESIAN Z    -4.321849     -5.227396  KCAL/ANGSTROM
     97         33  O    CARTESIAN X   -11.050186    -40.407741  KCAL/ANGSTROM
     98         33  O    CARTESIAN Y    -2.285732     36.112950  KCAL/ANGSTROM
     99         33  O    CARTESIAN Z    -6.426905     17.525179  KCAL/ANGSTROM
    100         34  H    CARTESIAN X   -11.359646     15.588179  KCAL/ANGSTROM
    101         34  H    CARTESIAN Y    -3.145967     -8.244035  KCAL/ANGSTROM
    102         34  H    CARTESIAN Z    -6.096136     -3.745445  KCAL/ANGSTROM
    103         35  H    CARTESIAN X   -10.209027     24.351057  KCAL/ANGSTROM
    104         35  H    CARTESIAN Y    -2.618098    -19.939131  KCAL/ANGSTROM
    105         35  H    CARTESIAN Z    -6.891208    -11.083601  KCAL/ANGSTROM
    106         36  O    CARTESIAN X    -5.126551     27.373391  KCAL/ANGSTROM
    107         36  O    CARTESIAN Y     0.558722     -4.474495  KCAL/ANGSTROM
    108         36  O    CARTESIAN Z    -7.107004      2.386680  KCAL/ANGSTROM
    109         37  H    CARTESIAN X    -5.681074     -2.757270  KCAL/ANGSTROM
    110         37  H    CARTESIAN Y    -0.234791     -5.445546  KCAL/ANGSTROM
    111         37  H    CARTESIAN Z    -7.148384     -5.927563  KCAL/ANGSTROM
    112         38  H    CARTESIAN X    -5.701617    -14.491501  KCAL/ANGSTROM
    113         38  H    CARTESIAN Y     1.361396     19.168233  KCAL/ANGSTROM
    114         38  H    CARTESIAN Z    -7.139462     -0.527689  KCAL/ANGSTROM
    115         39  O    CARTESIAN X   -12.878183    -24.068056  KCAL/ANGSTROM
    116         39  O    CARTESIAN Y    -2.161992     15.099291  KCAL/ANGSTROM
    117         39  O    CARTESIAN Z     0.812343    -13.408126  KCAL/ANGSTROM
    118         40  H    CARTESIAN X   -12.630838      9.007101  KCAL/ANGSTROM
    119         40  H    CARTESIAN Y    -3.000074    -10.949712  KCAL/ANGSTROM
    120         40  H    CARTESIAN Z     1.270698      7.366004  KCAL/ANGSTROM
    121         41  H    CARTESIAN X   -12.065427     11.110475  KCAL/ANGSTROM
    122         41  H    CARTESIAN Y    -1.642444    -11.588569  KCAL/ANGSTROM
    123         41  H    CARTESIAN Z     0.925728      4.630921  KCAL/ANGSTROM
    124         42  O    CARTESIAN X   -10.510456     11.380758  KCAL/ANGSTROM
    125         42  O    CARTESIAN Y    -2.091489    -36.946851  KCAL/ANGSTROM
    126         42  O    CARTESIAN Z     3.080866      5.071301  KCAL/ANGSTROM
    127         43  H    CARTESIAN X   -11.265865     -6.699607  KCAL/ANGSTROM
    128         43  H    CARTESIAN Y    -1.986117      5.724020  KCAL/ANGSTROM
    129         43  H    CARTESIAN Z     3.687427      4.212393  KCAL/ANGSTROM
    130         44  H    CARTESIAN X   -10.494137     -2.621435  KCAL/ANGSTROM
    131         44  H    CARTESIAN Y    -1.179200     27.261841  KCAL/ANGSTROM
    132         44  H    CARTESIAN Z     2.648838     -1.786382  KCAL/ANGSTROM
    133         45  O    CARTESIAN X    -7.129384      4.777055  KCAL/ANGSTROM
    134         45  O    CARTESIAN Y    -1.343154     -4.970366  KCAL/ANGSTROM
    135         45  O    CARTESIAN Z    -7.058666     13.602919  KCAL/ANGSTROM
    136         46  H    CARTESIAN X    -7.148898     -3.403328  KCAL/ANGSTROM
    137         46  H    CARTESIAN Y    -1.620774      7.390356  KCAL/ANGSTROM
    138         46  H    CARTESIAN Z    -8.013389    -28.593530  KCAL/ANGSTROM
    139         47  H    CARTESIAN X    -7.311888    -10.452803  KCAL/ANGSTROM
    140         47  H    CARTESIAN Y    -2.105616    -11.659918  KCAL/ANGSTROM
    141         47  H    CARTESIAN Z    -6.394501     19.826665  KCAL/ANGSTROM
    142         48  O    CARTESIAN X    -9.902674     -3.080242  KCAL/ANGSTROM
    143         48  O    CARTESIAN Y     3.942876    -17.880529  KCAL/ANGSTROM
    144         48  O    CARTESIAN Z    -1.073108     28.109940  KCAL/ANGSTROM
    145         49  H    CARTESIAN X   -10.051167      7.496927  KCAL/ANGSTROM
    146         49  H    CARTESIAN Y     4.507560     18.444564  KCAL/ANGSTROM
    147         49  H    CARTESIAN Z    -1.892504    -18.767857  KCAL/ANGSTROM
    148         50  H    CARTESIAN X    -8.980220     -4.897608  KCAL/ANGSTROM
    149         50  H    CARTESIAN Y     4.076326     -3.066165  KCAL/ANGSTROM
    150         50  H    CARTESIAN Z    -0.930004    -12.226205  KCAL/ANGSTROM
    151         51  O    CARTESIAN X   -13.087881    -13.318270  KCAL/ANGSTROM
    152         51  O    CARTESIAN Y    -0.678721    -49.462379  KCAL/ANGSTROM
    153         51  O    CARTESIAN Z    -6.744617     31.962742  KCAL/ANGSTROM
    154         52  H    CARTESIAN X   -12.455030     17.877340  KCAL/ANGSTROM
    155         52  H    CARTESIAN Y    -0.220183      4.731565  KCAL/ANGSTROM
    156         52  H    CARTESIAN Z    -7.410661    -18.917412  KCAL/ANGSTROM
    157         53  H    CARTESIAN X   -12.762775    -10.468037  KCAL/ANGSTROM
    158         53  H    CARTESIAN Y    -1.516588     31.192768  KCAL/ANGSTROM
    159         53  H    CARTESIAN Z    -6.709309    -10.341240  KCAL/ANGSTROM
    160         54  O    CARTESIAN X    -8.956700     -0.327099  KCAL/ANGSTROM
    161         54  O    CARTESIAN Y     0.565453     23.697862  KCAL/ANGSTROM
    162         54  O    CARTESIAN Z    -7.525568    -34.849760  KCAL/ANGSTROM
    163         55  H    CARTESIAN X    -8.676217    -17.708414  KCAL/ANGSTROM
    164         55  H    CARTESIAN Y     1.186495    -14.528140  KCAL/ANGSTROM
    165         55  H    CARTESIAN Z    -8.113804     17.193903  KCAL/ANGSTROM
    166         56  H    CARTESIAN X    -8.302065      4.891795  KCAL/ANGSTROM
    167         56  H    CARTESIAN Y    -0.152251    -15.709693  KCAL/ANGSTROM
    168         56  H    CARTESIAN Z    -7.253602      8.371164  KCAL/ANGSTROM
    169         57  O    CARTESIAN X   -11.290660     21.472409  KCAL/ANGSTROM
    170         57  O    CARTESIAN Y     0.296275     39.350531  KCAL/ANGSTROM
    171         57  O    CARTESIAN Z    -8.515592     26.769983  KCAL/ANGSTROM
    172         58  H    CARTESIAN X   -10.436092     -8.355341  KCAL/ANGSTROM
    173         58  H    CARTESIAN Y     0.345145     -3.312193  KCAL/ANGSTROM
    174         58  H    CARTESIAN Z    -8.104896    -12.315893  KCAL/ANGSTROM
    175         59  H    CARTESIAN X   -11.236791      6.366493  KCAL/ANGSTROM
    176         59  H    CARTESIAN Y    -0.546349    -28.566041  KCAL/ANGSTROM
    177         59  H    CARTESIAN Z    -9.072135    -16.082683  KCAL/ANGSTROM
    178         60  O    CARTESIAN X    -8.525373    -50.106912  KCAL/ANGSTROM
    179         60  O    CARTESIAN Y    -4.887207      3.638243  KCAL/ANGSTROM
    180         60  O    CARTESIAN Z     0.008395      6.754475  KCAL/ANGSTROM
    181         61  H    CARTESIAN X    -9.003293     27.127928  KCAL/ANGSTROM
    182         61  H    CARTESIAN Y    -4.944670      0.380940  KCAL/ANGSTROM
    183         61  H    CARTESIAN Z    -0.770069     16.706146  KCAL/ANGSTROM
    184         62  H    CARTESIAN X    -7.585544     22.545077  KCAL/ANGSTROM
    185         62  H    CARTESIAN Y    -5.004507     -3.807223  KCAL/ANGSTROM
    186         62  H    CARTESIAN Z    -0.353678    -22.686561  KCAL/ANGSTROM
    187         63  O    CARTESIAN X    -8.122485    -47.882781  KCAL/ANGSTROM
    188         63  O    CARTESIAN Y     4.492930    -25.233739  KCAL/ANGSTROM
    189         63  O    CARTESIAN Z     1.380141    -11.384656  KCAL/ANGSTROM
    190         64  H    CARTESIAN X    -7.558518     10.055439  KCAL/ANGSTROM
    191         64  H    CARTESIAN Y     3.727422      0.402296  KCAL/ANGSTROM
    192         64  H    CARTESIAN Z     1.251827     -1.582799  KCAL/ANGSTROM
    193         65  H    CARTESIAN X    -7.457560     34.485528  KCAL/ANGSTROM
    194         65  H    CARTESIAN Y     5.195602     24.917523  KCAL/ANGSTROM
    195         65  H    CARTESIAN Z     1.762447     13.331422  KCAL/ANGSTROM
    196         66  O    CARTESIAN X    -7.659119    -16.852205  KCAL/ANGSTROM
    197         66  O    CARTESIAN Y     3.519005      2.741212  KCAL/ANGSTROM
    198         66  O    CARTESIAN Z    -2.853349     22.197005  KCAL/ANGSTROM
    199         67  H    CARTESIAN X    -7.183668     -1.410858  KCAL/ANGSTROM
    200         67  H    CARTESIAN Y     3.412779      0.365662  KCAL/ANGSTROM
    201         67  H    CARTESIAN Z    -2.056379    -12.300181  KCAL/ANGSTROM
    202         68  H    CARTESIAN X    -6.981028     17.048937  KCAL/ANGSTROM
    203         68  H    CARTESIAN Y     3.392917     -3.763253  KCAL/ANGSTROM
    204         68  H    CARTESIAN Z    -3.571311     -8.464235  KCAL/ANGSTROM
    205         69  O    CARTESIAN X   -12.967051    -25.709823  KCAL/ANGSTROM
    206         69  O    CARTESIAN Y     1.089819      9.284268  KCAL/ANGSTROM
    207         69  O    CARTESIAN Z    -4.669762      9.326361  KCAL/ANGSTROM
    208         70  H    CARTESIAN X   -12.125998     12.434993  KCAL/ANGSTROM
    209         70  H    CARTESIAN Y     1.458774      2.852873  KCAL/ANGSTROM
    210         70  H    CARTESIAN Z    -4.326078      2.860468  KCAL/ANGSTROM
    211         71  H    CARTESIAN X   -12.648828     17.831697  KCAL/ANGSTROM
    212         71  H    CARTESIAN Y     0.452573    -10.890255  KCAL/ANGSTROM
    213         71  H    CARTESIAN Z    -5.363652    -10.704481  KCAL/ANGSTROM
    214         72  H    CARTESIAN X   -11.614740     -3.517468  KCAL/ANGSTROM
    215         72  H    CARTESIAN Y     1.547104     -8.133469  KCAL/ANGSTROM
    216         72  H    CARTESIAN Z     0.357355      2.445281  KCAL/ANGSTROM
    217         73  H    CARTESIAN X    -7.410561     -6.001596  KCAL/ANGSTROM
    218         73  H    CARTESIAN Y     0.887408    -18.745216  KCAL/ANGSTROM
    219         73  H    CARTESIAN Z     0.259037     -1.433298  KCAL/ANGSTROM




   ATOM   CHEMICAL          X               Y               Z
  NUMBER   SYMBOL      (ANGSTROMS)     (ANGSTROMS)     (ANGSTROMS)
 
     1       C        -10.79438100  *   0.88242100  *   0.62810700  *
     2       O        -11.03975100  *  -0.11939700  *   1.25888700  *
     3       N         -9.53715700  *   1.13584800  *   0.19219400  *
     4       H         -9.33819100  *   1.95779300  *  -0.36166300  *
     5       C         -8.29611200  *   0.27629700  *   0.43351800  *
     6       H         -8.27511600  *  -0.11304000  *   1.48775400  *
     7       C         -8.18471800  *  -0.93783000  *  -0.43873200  *
     8       H         -7.28944300  *  -1.54396200  *  -0.18380600  *
     9       H         -9.10998400  *  -1.58428800  *  -0.16760100  *
    10       C         -8.37444700  *  -0.82922200  *  -1.95164200  *
    11       C         -9.26776000  *  -1.74289200  *  -2.51125600  *
    12       H         -9.84419900  *  -2.43175600  *  -1.84683000  *
    13       C         -9.63879700  *  -1.63153400  *  -3.84917400  *
    14       H        -10.55392900  *  -2.13713300  *  -4.26366400  *
    15       C         -8.89080100  *  -0.90703800  *  -4.69880000  *
    16       H         -8.95297700  *  -0.83135600  *  -5.76988500  *
    17       C         -7.47034300  *  -0.16488300  *  -2.80076900  *
    18       H         -6.68003600  *   0.49884400  *  -2.42012500  *
    19       C         -7.74044300  *  -0.21811300  *  -4.19060200  *
    20       H         -7.05838100  *   0.28471800  *  -4.81935800  *
    21       O        -10.11130400  *   1.84855100  *  -2.85556400  *
    22       H         -9.91665800  *   1.08223200  *  -3.46344500  *
    23       H         -9.45737800  *   2.55103100  *  -3.00337400  *
    24       O         -7.45962400  *  -3.32814900  *  -5.28251900  *
    25       H         -7.58043500  *  -2.87510800  *  -4.37717200  *
    26       H         -8.17644400  *  -3.95311300  *  -5.29257700  *
    27       O        -10.22122600  *   1.87819500  *  -5.39954900  *
    28       H         -9.89111800  *   1.41474600  *  -6.14426400  *
    29       H         -9.73908400  *   2.74384700  *  -5.30864500  *
    30       O        -13.26718800  *  -4.28103400  *  -5.21516000  *
    31       H        -13.03147000  *  -5.19930400  *  -4.90353500  *
    32       H        -13.44842800  *  -3.99414500  *  -4.32184900  *
    33       O        -11.05018600  *  -2.28573200  *  -6.42690500  *
    34       H        -11.35964600  *  -3.14596700  *  -6.09613600  *
    35       H        -10.20902700  *  -2.61809800  *  -6.89120800  *
    36       O         -5.12655100  *   0.55872200  *  -7.10700400  *
    37       H         -5.68107400  *  -0.23479100  *  -7.14838400  *
    38       H         -5.70161700  *   1.36139600  *  -7.13946200  *
    39       O        -12.87818300  *  -2.16199200  *   0.81234300  *
    40       H        -12.63083800  *  -3.00007400  *   1.27069800  *
    41       H        -12.06542700  *  -1.64244400  *   0.92572800  *
    42       O        -10.51045600  *  -2.09148900  *   3.08086600  *
    43       H        -11.26586500  *  -1.98611700  *   3.68742700  *
    44       H        -10.49413700  *  -1.17920000  *   2.64883800  *
    45       O         -7.12938400  *  -1.34315400  *  -7.05866600  *
    46       H         -7.14889800  *  -1.62077400  *  -8.01338900  *
    47       H         -7.31188800  *  -2.10561600  *  -6.39450100  *
    48       O         -9.90267400  *   3.94287600  *  -1.07310800  *
    49       H        -10.05116700  *   4.50756000  *  -1.89250400  *
    50       H         -8.98022000  *   4.07632600  *  -0.93000400  *
    51       O        -13.08788100  *  -0.67872100  *  -6.74461700  *
    52       H        -12.45503000  *  -0.22018300  *  -7.41066100  *
    53       H        -12.76277500  *  -1.51658800  *  -6.70930900  *
    54       O         -8.95670000  *   0.56545300  *  -7.52556800  *
    55       H         -8.67621700  *   1.18649500  *  -8.11380400  *
    56       H         -8.30206500  *  -0.15225100  *  -7.25360200  *
    57       O        -11.29066000  *   0.29627500  *  -8.51559200  *
    58       H        -10.43609200  *   0.34514500  *  -8.10489600  *
    59       H        -11.23679100  *  -0.54634900  *  -9.07213500  *
    60       O         -8.52537300  *  -4.88720700  *   0.00839500  *
    61       H         -9.00329300  *  -4.94467000  *  -0.77006900  *
    62       H         -7.58554400  *  -5.00450700  *  -0.35367800  *
    63       O         -8.12248500  *   4.49293000  *   1.38014100  *
    64       H         -7.55851800  *   3.72742200  *   1.25182700  *
    65       H         -7.45756000  *   5.19560200  *   1.76244700  *
    66       O         -7.65911900  *   3.51900500  *  -2.85334900  *
    67       H         -7.18366800  *   3.41277900  *  -2.05637900  *
    68       H         -6.98102800  *   3.39291700  *  -3.57131100  *
    69       O        -12.96705100  *   1.08981900  *  -4.66976200  *
    70       H        -12.12599800  *   1.45877400  *  -4.32607800  *
    71       H        -12.64882800  *   0.45257300  *  -5.36365200  *
    72       H        -11.61474000  *   1.54710400  *   0.35735500  *
    73       H         -7.41056100  *   0.88740800  *   0.25903700  *

                             CARTESIAN COORDINATES

   1    C      -10.794381000     0.882421000     0.628107000
   2    O      -11.039751000    -0.119397000     1.258887000
   3    N       -9.537157000     1.135848000     0.192194000
   4    H       -9.338191000     1.957793000    -0.361663000
   5    C       -8.296112000     0.276297000     0.433518000
   6    H       -8.275116000    -0.113040000     1.487754000
   7    C       -8.184718000    -0.937830000    -0.438732000
   8    H       -7.289443000    -1.543962000    -0.183806000
   9    H       -9.109984000    -1.584288000    -0.167601000
  10    C       -8.374447000    -0.829222000    -1.951642000
  11    C       -9.267760000    -1.742892000    -2.511256000
  12    H       -9.844199000    -2.431756000    -1.846830000
  13    C       -9.638797000    -1.631534000    -3.849174000
  14    H      -10.553929000    -2.137133000    -4.263664000
  15    C       -8.890801000    -0.907038000    -4.698800000
  16    H       -8.952977000    -0.831356000    -5.769885000
  17    C       -7.470343000    -0.164883000    -2.800769000
  18    H       -6.680036000     0.498844000    -2.420125000
  19    C       -7.740443000    -0.218113000    -4.190602000
  20    H       -7.058381000     0.284718000    -4.819358000
  21    O      -10.111304000     1.848551000    -2.855564000
  22    H       -9.916658000     1.082232000    -3.463445000
  23    H       -9.457378000     2.551031000    -3.003374000
  24    O       -7.459624000    -3.328149000    -5.282519000
  25    H       -7.580435000    -2.875108000    -4.377172000
  26    H       -8.176444000    -3.953113000    -5.292577000
  27    O      -10.221226000     1.878195000    -5.399549000
  28    H       -9.891118000     1.414746000    -6.144264000
  29    H       -9.739084000     2.743847000    -5.308645000
  30    O      -13.267188000    -4.281034000    -5.215160000
  31    H      -13.031470000    -5.199304000    -4.903535000
  32    H      -13.448428000    -3.994145000    -4.321849000
  33    O      -11.050186000    -2.285732000    -6.426905000
  34    H      -11.359646000    -3.145967000    -6.096136000
  35    H      -10.209027000    -2.618098000    -6.891208000
  36    O       -5.126551000     0.558722000    -7.107004000
  37    H       -5.681074000    -0.234791000    -7.148384000
  38    H       -5.701617000     1.361396000    -7.139462000
  39    O      -12.878183000    -2.161992000     0.812343000
  40    H      -12.630838000    -3.000074000     1.270698000
  41    H      -12.065427000    -1.642444000     0.925728000
  42    O      -10.510456000    -2.091489000     3.080866000
  43    H      -11.265865000    -1.986117000     3.687427000
  44    H      -10.494137000    -1.179200000     2.648838000
  45    O       -7.129384000    -1.343154000    -7.058666000
  46    H       -7.148898000    -1.620774000    -8.013389000
  47    H       -7.311888000    -2.105616000    -6.394501000
  48    O       -9.902674000     3.942876000    -1.073108000
  49    H      -10.051167000     4.507560000    -1.892504000
  50    H       -8.980220000     4.076326000    -0.930004000
  51    O      -13.087881000    -0.678721000    -6.744617000
  52    H      -12.455030000    -0.220183000    -7.410661000
  53    H      -12.762775000    -1.516588000    -6.709309000
  54    O       -8.956700000     0.565453000    -7.525568000
  55    H       -8.676217000     1.186495000    -8.113804000
  56    H       -8.302065000    -0.152251000    -7.253602000
  57    O      -11.290660000     0.296275000    -8.515592000
  58    H      -10.436092000     0.345145000    -8.104896000
  59    H      -11.236791000    -0.546349000    -9.072135000
  60    O       -8.525373000    -4.887207000     0.008395000
  61    H       -9.003293000    -4.944670000    -0.770069000
  62    H       -7.585544000    -5.004507000    -0.353678000
  63    O       -8.122485000     4.492930000     1.380141000
  64    H       -7.558518000     3.727422000     1.251827000
  65    H       -7.457560000     5.195602000     1.762447000
  66    O       -7.659119000     3.519005000    -2.853349000
  67    H       -7.183668000     3.412779000    -2.056379000
  68    H       -6.981028000     3.392917000    -3.571311000
  69    O      -12.967051000     1.089819000    -4.669762000
  70    H      -12.125998000     1.458774000    -4.326078000
  71    H      -12.648828000     0.452573000    -5.363652000
  72    H      -11.614740000     1.547104000     0.357355000
  73    H       -7.410561000     0.887408000     0.259037000


           Empirical Formula: C9 H45 N O18  =    73 atoms



      MOLECULAR POINT GROUP   :   C1  


                EIGENVECTORS  


   Root No.       1         2         3         4         5         6         7         8

                 1 A       2 A       3 A       4 A       5 A       6 A       7 A       8 A   

               -35.698   -30.528   -30.187   -29.891   -29.712   -29.669   -29.426   -29.259
  
  S   C    1    0.3366   -0.0232    0.0311    0.0006    0.3656    0.0735   -0.0229    0.0021
  Px  C    1    0.1997   -0.0026   -0.0001   -0.0001   -0.1201   -0.0280    0.0192   -0.0033
  Py  C    1    0.0205    0.0041   -0.0095   -0.0004   -0.2738   -0.0606    0.0339   -0.0054
  Pz  C    1   -0.0572   -0.0033    0.0070    0.0002    0.1848    0.0406   -0.0221    0.0035
  S   O    2    0.0814   -0.0204    0.0351    0.0010    0.7154    0.1541   -0.0763    0.0113
  Px  O    2    0.0544   -0.0027    0.0036    0.0001    0.0487    0.0100   -0.0038    0.0004
  Py  O    2    0.0714   -0.0102    0.0155    0.0003    0.2476    0.0520   -0.0221    0.0029
  Pz  O    2   -0.0534    0.0058   -0.0090   -0.0002   -0.1547   -0.0328    0.0146   -0.0020
  S   N    3    0.8148   -0.0153    0.0111   -0.0001   -0.1626   -0.0419    0.0373   -0.0070
  Px  N    3   -0.0521    0.0121   -0.0148   -0.0002   -0.0876   -0.0144   -0.0044    0.0018
  Py  N    3   -0.0081   -0.0040    0.0035   -0.0001   -0.0585   -0.0153    0.0139   -0.0026
  Pz  N    3    0.0193   -0.0049    0.0058    0.0001    0.0540    0.0104   -0.0021    0.0000
  S   H    4    0.2531   -0.0021    0.0004   -0.0001   -0.0888   -0.0209    0.0139   -0.0023
  S   C    5    0.2116    0.0272   -0.0321   -0.0002   -0.0808   -0.0052   -0.0281    0.0071
  Px  C    5   -0.1205    0.0056   -0.0055   -0.0000    0.0104    0.0046   -0.0084    0.0018
  Py  C    5    0.0781   -0.0131    0.0134   -0.0000   -0.0282   -0.0120    0.0200   -0.0042
  Pz  C    5   -0.0244   -0.0138    0.0146    0.0001    0.0215   -0.0005    0.0126   -0.0030
  S   H    6    0.0677    0.0086   -0.0103   -0.0000   -0.0170    0.0006   -0.0110    0.0027
  S   C    7    0.0654    0.0815   -0.0856   -0.0002   -0.0413    0.0233   -0.0870    0.0193
  Px  C    7   -0.0214   -0.0062    0.0060   -0.0001    0.0004   -0.0022    0.0053   -0.0010
  Py  C    7    0.0393   -0.0008   -0.0002   -0.0001   -0.0178   -0.0038    0.0001    0.0004
  Pz  C    7    0.0164   -0.0388    0.0371    0.0001   -0.0011   -0.0126    0.0333   -0.0070
  S   H    8    0.0158    0.0317   -0.0333   -0.0001   -0.0143    0.0095   -0.0343    0.0076
  S   H    9    0.0321    0.0379   -0.0392    0.0000   -0.0102    0.0126   -0.0397    0.0086
  S   C   10    0.0261    0.2339   -0.2208   -0.0007   -0.0284    0.0662   -0.1920    0.0410
  Px  C   10   -0.0026   -0.0067    0.0057   -0.0005   -0.0020   -0.0030    0.0026    0.0002
  Py  C   10    0.0065   -0.0185    0.0179   -0.0004   -0.0032   -0.0071    0.0112   -0.0010
  Pz  C   10    0.0161   -0.0763    0.0633    0.0003   -0.0090   -0.0184    0.0421   -0.0086
  S   C   11    0.0089    0.2384   -0.2167    0.0014   -0.0097    0.0678   -0.1632    0.0317
  Px  C   11    0.0019    0.0421   -0.0396   -0.0010   -0.0037    0.0101   -0.0318    0.0060
  Py  C   11    0.0040    0.0581   -0.0525   -0.0005   -0.0048    0.0154   -0.0484    0.0111
  Pz  C   11    0.0052   -0.0578    0.0435   -0.0008   -0.0059   -0.0118    0.0148   -0.0016
  S   H   12    0.0051    0.0672   -0.0631    0.0009   -0.0038    0.0210   -0.0494    0.0096
  S   C   13    0.0021    0.2654   -0.2142    0.0042    0.0030    0.0645   -0.1260    0.0245
  Px  C   13    0.0007    0.0845   -0.0701   -0.0024    0.0018    0.0139   -0.0385    0.0046
  Py  C   13    0.0008    0.0453   -0.0347   -0.0017   -0.0007    0.0074   -0.0352    0.0086
  Pz  C   13    0.0015    0.0137   -0.0272   -0.0006   -0.0048    0.0108   -0.0344    0.0062
  S   H   14    0.0004    0.0782   -0.0567    0.0071    0.0009    0.0252   -0.0252    0.0086
  S   C   15    0.0014    0.2832   -0.1945   -0.0024    0.0099    0.0385   -0.1117    0.0247
  Px  C   15    0.0001    0.0197   -0.0139   -0.0026    0.0018   -0.0040   -0.0042    0.0019
  Py  C   15    0.0001   -0.0175    0.0185   -0.0019   -0.0021   -0.0075   -0.0111    0.0058
  Pz  C   15    0.0011    0.0766   -0.0858    0.0014   -0.0035    0.0313   -0.0603    0.0108
  S   H   16    0.0002    0.1139   -0.0402   -0.0035    0.0088   -0.0072   -0.0215    0.0069
  S   C   17    0.0092    0.2133   -0.1902   -0.0021   -0.0140    0.0519   -0.1586    0.0377
  Px  C   17   -0.0035   -0.0696    0.0617    0.0002    0.0039   -0.0180    0.0501   -0.0101
  Py  C   17   -0.0001   -0.0457    0.0417    0.0000    0.0013   -0.0124    0.0294   -0.0050
  Pz  C   17    0.0061   -0.0323    0.0193    0.0009   -0.0080   -0.0018    0.0061   -0.0033
  S   H   18    0.0054    0.0585   -0.0531   -0.0007   -0.0069    0.0141   -0.0475    0.0122
  S   C   19    0.0020    0.2434   -0.1850   -0.0044    0.0027    0.0370   -0.1306    0.0366
  Px  C   19   -0.0006   -0.0599    0.0440    0.0002   -0.0010   -0.0112    0.0300   -0.0030
  Py  C   19   -0.0000   -0.0481    0.0384    0.0001   -0.0021   -0.0090    0.0141    0.0003
  Pz  C   19    0.0017    0.0383   -0.0492    0.0009   -0.0063    0.0206   -0.0458    0.0071
  S   H   20    0.0005    0.0808   -0.0520   -0.0028    0.0030    0.0033   -0.0357    0.0203
  S   O   21    0.0083    0.0699   -0.0446   -0.0016   -0.0177    0.0143   -0.0771    0.0166
  Px  O   21    0.0032    0.0160   -0.0106   -0.0005   -0.0046    0.0022   -0.0172    0.0034
  Py  O   21    0.0003   -0.0088    0.0067   -0.0000   -0.0006   -0.0026    0.0055   -0.0013
  Pz  O   21    0.0033   -0.0173    0.0102    0.0003    0.0008   -0.0041    0.0166   -0.0035
  S   H   22    0.0041    0.0489   -0.0312   -0.0008   -0.0066    0.0097   -0.0421    0.0088
  S   H   23    0.0069    0.0278   -0.0166   -0.0008   -0.0091    0.0042   -0.0306    0.0063
  S   O   24    0.0002    0.2702   -0.2106   -0.0068    0.0935   -0.0321    0.6735   -0.3133
  Px  O   24   -0.0000   -0.0558    0.0442    0.0007   -0.0183    0.0039   -0.1332    0.0637
  Py  O   24    0.0000    0.0021    0.0049   -0.0008   -0.0027   -0.0030   -0.0353    0.0230
  Pz  O   24    0.0001    0.0465   -0.0424   -0.0003    0.0130    0.0026    0.0943   -0.0524
  S   H   25    0.0003    0.1210   -0.0939   -0.0024    0.0322   -0.0054    0.2135   -0.1023
  S   H   26    0.0001    0.1069   -0.0834   -0.0018    0.0360   -0.0099    0.2610   -0.1222
  S   O   27    0.0005    0.1016    0.0701   -0.0142    0.0028   -0.0471   -0.0750   -0.0260
  Px  O   27    0.0002    0.0221    0.0133   -0.0034    0.0011   -0.0123   -0.0160   -0.0058
  Py  O   27    0.0000   -0.0020   -0.0004   -0.0002   -0.0001   -0.0016   -0.0024   -0.0007
  Pz  O   27    0.0002   -0.0210   -0.0212    0.0034   -0.0016    0.0126    0.0116    0.0073
  S   H   28    0.0002    0.0640    0.0474   -0.0087    0.0028   -0.0295   -0.0364   -0.0152
  S   H   29    0.0004    0.0367    0.0222   -0.0050    0.0006   -0.0164   -0.0280   -0.0084
  S   O   30    0.0000    0.0247    0.0127    0.8325    0.0268   -0.1459   -0.0290   -0.0209
  Px  O   30    0.0000    0.0015    0.0004    0.0085   -0.0001    0.0013    0.0011    0.0011
  Py  O   30    0.0000   -0.0018   -0.0008   -0.0996   -0.0037    0.0207    0.0047    0.0038
  Pz  O   30    0.0000    0.0063    0.0030    0.2299    0.0077   -0.0421   -0.0089   -0.0066
  S   H   31    0.0000    0.0092    0.0045    0.3069    0.0099   -0.0539   -0.0107   -0.0077
  S   H   32    0.0000    0.0104    0.0051    0.3304    0.0105   -0.0569   -0.0113   -0.0079
  S   O   33    0.0000    0.1057    0.0345    0.1073   -0.0294    0.2214    0.1280    0.1120
  Px  O   33    0.0000    0.0099   -0.0084    0.0032    0.0031   -0.0049    0.0063    0.0017
  Py  O   33   -0.0000   -0.0226   -0.0017   -0.0294    0.0047   -0.0441   -0.0313   -0.0254
  Pz  O   33    0.0000    0.0001   -0.0066    0.0004    0.0013   -0.0055   -0.0041   -0.0015
  S   H   34    0.0000    0.0456    0.0126    0.0535   -0.0120    0.0907    0.0514    0.0452
  S   H   35    0.0000    0.0452    0.0093    0.0357   -0.0080    0.0703    0.0463    0.0352
  S   O   36    0.0000    0.0834    0.0379   -0.0254    0.0509   -0.2002    0.1999    0.7421
  Px  O   36   -0.0000   -0.0255   -0.0113    0.0072   -0.0140    0.0552   -0.0528   -0.1939
  Py  O   36   -0.0000   -0.0043   -0.0010    0.0008   -0.0016    0.0053   -0.0054   -0.0089
  Pz  O   36    0.0000   -0.0013   -0.0012    0.0005   -0.0010    0.0039   -0.0039   -0.0130
  S   H   37    0.0000    0.0423    0.0172   -0.0112    0.0218   -0.0840    0.0811    0.2777
  S   H   38    0.0000    0.0317    0.0148   -0.0093    0.0179   -0.0711    0.0677    0.2558
  S   O   39    0.0007    0.0009    0.0001    0.0002    0.0835    0.0202   -0.0169    0.0035
  Px  O   39    0.0001    0.0004   -0.0000    0.0001    0.0243    0.0059   -0.0048    0.0010
  Py  O   39   -0.0002   -0.0000    0.0000   -0.0000   -0.0009   -0.0003    0.0004   -0.0001
  Pz  O   39   -0.0000    0.0001    0.0000    0.0000    0.0101    0.0025   -0.0021    0.0004
  S   H   40    0.0002    0.0004   -0.0001    0.0001    0.0292    0.0071   -0.0060    0.0012
  S   H   41    0.0010    0.0005    0.0003    0.0001    0.0488    0.0116   -0.0089    0.0017
  S   O   42    0.0022    0.0004   -0.0001    0.0000    0.0292    0.0071   -0.0058    0.0011
  Px  O   42    0.0001   -0.0000   -0.0000   -0.0000   -0.0044   -0.0011    0.0009   -0.0002
  Py  O   42    0.0010    0.0002   -0.0001    0.0000    0.0084    0.0021   -0.0017    0.0003
  Pz  O   42   -0.0002   -0.0001    0.0002   -0.0000   -0.0001   -0.0001    0.0002   -0.0000
  S   H   43    0.0007    0.0001   -0.0000    0.0000    0.0114    0.0028   -0.0022    0.0004
  S   H   44    0.0040    0.0003    0.0001    0.0000    0.0238    0.0057   -0.0042    0.0008
  S   O   45    0.0000    0.1865    0.0358   -0.0299    0.0628   -0.1852    0.2153    0.1258
  Px  O   45   -0.0000   -0.0236   -0.0090    0.0030   -0.0040    0.0137   -0.0025    0.0211
  Py  O   45   -0.0000   -0.0235    0.0115    0.0020   -0.0094    0.0152   -0.0493   -0.0003
  Pz  O   45    0.0000   -0.0080   -0.0162    0.0035   -0.0045    0.0223   -0.0096   -0.0207
  S   H   46    0.0000    0.0694    0.0200   -0.0117    0.0231   -0.0721    0.0749    0.0511
  S   H   47    0.0000    0.0839   -0.0097   -0.0091    0.0249   -0.0550    0.1019    0.0179
  S   O   48    0.0161    0.0057   -0.0042   -0.0003   -0.0277   -0.0045   -0.0094    0.0033
  Px  O   48    0.0067    0.0015   -0.0011   -0.0001   -0.0082   -0.0014   -0.0022    0.0008
  Py  O   48   -0.0072    0.0007   -0.0005   -0.0000    0.0005    0.0004   -0.0018    0.0005
  Pz  O   48    0.0025   -0.0015    0.0009    0.0001    0.0014   -0.0001    0.0024   -0.0006
  S   H   49    0.0042    0.0028   -0.0019   -0.0001   -0.0087   -0.0012   -0.0045    0.0014
  S   H   50    0.0143    0.0030   -0.0023   -0.0002   -0.0154   -0.0026   -0.0046    0.0017
  S   O   51    0.0000    0.1359    0.2504    0.0903   -0.1197    0.5737    0.1512    0.1761
  Px  O   51    0.0000    0.0331    0.0592    0.0193   -0.0262    0.1238    0.0308    0.0349
  Py  O   51    0.0000   -0.0182   -0.0328   -0.0163    0.0180   -0.0889   -0.0265   -0.0310
  Pz  O   51    0.0000   -0.0173   -0.0324   -0.0085    0.0129   -0.0597   -0.0140   -0.0144
  S   H   52    0.0000    0.0622    0.1105    0.0294   -0.0433    0.2003    0.0450    0.0479
  S   H   53    0.0000    0.0636    0.1111    0.0447   -0.0533    0.2581    0.0699    0.0805
  S   O   54    0.0001    0.3941    0.4309   -0.0843    0.0650   -0.3974   -0.1207   -0.1053
  Px  O   54    0.0000    0.0624    0.0527   -0.0164    0.0179   -0.0912   -0.0128   -0.0032
  Py  O   54    0.0000    0.0070    0.0226   -0.0036    0.0012   -0.0163   -0.0124   -0.0114
  Pz  O   54    0.0000   -0.0437   -0.0656    0.0100   -0.0055    0.0430    0.0164    0.0198
  S   H   55    0.0000    0.1668    0.1890   -0.0358    0.0265   -0.1667   -0.0529   -0.0460
  S   H   56    0.0000    0.1471    0.1266   -0.0285    0.0264   -0.1391   -0.0225   -0.0137
  S   O   57    0.0000    0.2537    0.4294   -0.0025   -0.0612    0.1832   -0.0667   -0.1523
  Px  O   57    0.0000    0.0595    0.0927   -0.0061   -0.0067    0.0065   -0.0233   -0.0415
  Py  O   57   -0.0000   -0.0403   -0.0702   -0.0019    0.0124   -0.0427    0.0068    0.0206
  Pz  O   57    0.0000    0.0092    0.0118    0.0013   -0.0023    0.0099    0.0023    0.0040
  S   H   58    0.0000    0.1288    0.1980   -0.0070   -0.0191    0.0425   -0.0356   -0.0670
  S   H   59    0.0000    0.0900    0.1520    0.0006   -0.0228    0.0714   -0.0208   -0.0506
  S   O   60    0.0003    0.0071   -0.0083    0.0002   -0.0010    0.0038   -0.0102    0.0017
  Px  O   60   -0.0000    0.0001   -0.0002   -0.0000   -0.0001    0.0001   -0.0003    0.0000
  Py  O   60    0.0001    0.0001   -0.0000   -0.0000   -0.0000   -0.0000    0.0000    0.0000
  Pz  O   60   -0.0001   -0.0025    0.0028   -0.0001    0.0003   -0.0012    0.0032   -0.0005
  S   H   61    0.0003    0.0042   -0.0047    0.0001   -0.0005    0.0020   -0.0051    0.0008
  S   H   62    0.0002    0.0028   -0.0032    0.0001   -0.0004    0.0014   -0.0036    0.0006
  S   O   63    0.0040    0.0005   -0.0006   -0.0000   -0.0070   -0.0013   -0.0005    0.0003
  Px  O   63    0.0010    0.0001   -0.0002   -0.0000   -0.0018   -0.0003   -0.0001    0.0001
  Py  O   63   -0.0020   -0.0001    0.0001    0.0000    0.0015    0.0003    0.0000   -0.0000
  Pz  O   63   -0.0007   -0.0001    0.0001    0.0000    0.0005    0.0001    0.0001   -0.0000
  S   H   64    0.0054    0.0004   -0.0004   -0.0000   -0.0047   -0.0009   -0.0003    0.0002
  S   H   65    0.0010    0.0002   -0.0002   -0.0000   -0.0020   -0.0004   -0.0002    0.0001
  S   O   66    0.0039    0.0178   -0.0146   -0.0009   -0.0213    0.0010   -0.0425    0.0166
  Px  O   66    0.0003    0.0032   -0.0031   -0.0002   -0.0046    0.0001   -0.0093    0.0041
  Py  O   66   -0.0007   -0.0024    0.0017    0.0001    0.0015   -0.0003    0.0037   -0.0012
  Pz  O   66    0.0016    0.0008   -0.0011   -0.0000   -0.0027   -0.0001   -0.0026    0.0010
  S   H   67    0.0039    0.0082   -0.0069   -0.0004   -0.0104    0.0003   -0.0181    0.0070
  S   H   68    0.0012    0.0073   -0.0056   -0.0004   -0.0069    0.0004   -0.0152    0.0060
  S   O   69    0.0002    0.0301    0.0333    0.0124   -0.0198    0.0917    0.0111    0.0336
  Px  O   69    0.0001    0.0094    0.0090    0.0033   -0.0054    0.0248    0.0021    0.0090
  Py  O   69    0.0000   -0.0031   -0.0050   -0.0018    0.0024   -0.0116   -0.0026   -0.0037
  Pz  O   69    0.0000   -0.0039   -0.0062   -0.0020    0.0029   -0.0138   -0.0030   -0.0043
  S   H   70    0.0003    0.0146    0.0117    0.0044   -0.0075    0.0338    0.0013    0.0125
  S   H   71    0.0001    0.0191    0.0243    0.0085   -0.0125    0.0586    0.0098    0.0193
  S   H   72    0.0942   -0.0078    0.0104    0.0002    0.1105    0.0218   -0.0055    0.0003
  S   H   73    0.0711    0.0132   -0.0152   -0.0001   -0.0395   -0.0030   -0.0127    0.0033


   Root No.       9        10        11        12        13        14        15        16

                 9 A      10 A      11 A      12 A      13 A      14 A      15 A      16 A   

               -28.992   -28.893   -28.779   -28.557   -28.466   -28.418   -28.229   -27.917
  
  S   C    1    0.0006    0.0077    0.0004   -0.0027    0.0071   -0.0536    0.0022    0.0054
  Px  C    1    0.0030   -0.0071   -0.0001   -0.0005    0.0004    0.0097    0.0008   -0.0094
  Py  C    1    0.0046   -0.0073   -0.0001   -0.0006    0.0016    0.0264    0.0023   -0.0042
  Pz  C    1   -0.0029    0.0060    0.0001    0.0001   -0.0003   -0.0248   -0.0013    0.0048
  S   O    2   -0.0082    0.0218    0.0005   -0.0002    0.0012   -0.0601   -0.0021    0.0184
  Px  O    2   -0.0002    0.0000   -0.0000   -0.0005    0.0009   -0.0223   -0.0004   -0.0014
  Py  O    2   -0.0015    0.0068    0.0002   -0.0016    0.0041   -0.0608   -0.0002    0.0058
  Pz  O    2    0.0012   -0.0039   -0.0001    0.0004   -0.0011    0.0179    0.0001   -0.0028
  S   N    3    0.0070   -0.0115   -0.0001   -0.0018    0.0028    0.0190    0.0029   -0.0152
  Px  N    3   -0.0034   -0.0024   -0.0003    0.0023   -0.0070    0.0189   -0.0037   -0.0046
  Py  N    3    0.0034    0.0050    0.0006   -0.0014    0.0055    0.0056    0.0038    0.0132
  Pz  N    3    0.0002   -0.0016   -0.0000   -0.0002   -0.0002   -0.0092   -0.0005   -0.0057
  S   H    4    0.0026    0.0057    0.0005   -0.0009    0.0043    0.0119    0.0032    0.0164
  S   C    5   -0.0115   -0.0139   -0.0016    0.0068   -0.0217    0.0224   -0.0131   -0.0300
  Px  C    5   -0.0023    0.0020   -0.0001    0.0008   -0.0024   -0.0006   -0.0015    0.0017
  Py  C    5    0.0056    0.0033    0.0006   -0.0028    0.0072    0.0012    0.0049    0.0062
  Pz  C    5    0.0041    0.0032    0.0005   -0.0012    0.0057   -0.0041    0.0033    0.0046
  S   H    6   -0.0043   -0.0051   -0.0006    0.0030   -0.0083    0.0078   -0.0051   -0.0119
  S   C    7   -0.0271   -0.0234   -0.0032    0.0123   -0.0394    0.0172   -0.0240   -0.0376
  Px  C    7    0.0012    0.0023   -0.0000   -0.0007    0.0018   -0.0013    0.0012    0.0019
  Py  C    7   -0.0006   -0.0005   -0.0004   -0.0014   -0.0017    0.0038   -0.0008   -0.0036
  Pz  C    7    0.0084    0.0058    0.0010    0.0006    0.0087    0.0029    0.0046    0.0025
  S   H    8   -0.0109   -0.0090   -0.0013    0.0068   -0.0158    0.0065   -0.0097   -0.0151
  S   H    9   -0.0119   -0.0110   -0.0011    0.0080   -0.0173    0.0088   -0.0107   -0.0163
  S   C   10   -0.0487   -0.0399   -0.0060    0.0024   -0.0572    0.0017   -0.0301   -0.0345
  Px  C   10   -0.0013    0.0030   -0.0013   -0.0011   -0.0008    0.0002    0.0007   -0.0014
  Py  C   10    0.0032    0.0074   -0.0010   -0.0028    0.0070    0.0004    0.0052    0.0062
  Pz  C   10    0.0065    0.0058    0.0011    0.0069    0.0034    0.0086   -0.0013   -0.0053
  S   C   11   -0.0338   -0.0410    0.0017    0.0024   -0.0454   -0.0049   -0.0260   -0.0240
  Px  C   11   -0.0116   -0.0066   -0.0032   -0.0008   -0.0108   -0.0005   -0.0053   -0.0068
  Py  C   11   -0.0100   -0.0081   -0.0025   -0.0037   -0.0100   -0.0014   -0.0030   -0.0038
  Pz  C   11   -0.0030    0.0046   -0.0033    0.0069   -0.0011    0.0061   -0.0020   -0.0044
  S   H   12   -0.0107   -0.0136    0.0014    0.0081   -0.0156    0.0010   -0.0103   -0.0098
  S   C   13   -0.0021   -0.0352    0.0131   -0.0088   -0.0247   -0.0120   -0.0083   -0.0091
  Px  C   13   -0.0143   -0.0094   -0.0057   -0.0034   -0.0105   -0.0038   -0.0020   -0.0046
  Py  C   13   -0.0048   -0.0033   -0.0052   -0.0036   -0.0009   -0.0024    0.0052    0.0018
  Pz  C   13   -0.0183   -0.0065   -0.0044    0.0027   -0.0113    0.0006   -0.0110   -0.0049
  S   H   14    0.0211   -0.0111    0.0190   -0.0022   -0.0037   -0.0032   -0.0026   -0.0016
  S   C   15    0.0062   -0.0252   -0.0030   -0.0140   -0.0131   -0.0137    0.0204   -0.0060
  Px  C   15   -0.0092    0.0001   -0.0079   -0.0012   -0.0059   -0.0011    0.0048   -0.0023
  Py  C   15   -0.0017    0.0059   -0.0076   -0.0006    0.0089    0.0009    0.0056    0.0030
  Pz  C   15   -0.0198   -0.0119    0.0017   -0.0034   -0.0107   -0.0040   -0.0138   -0.0003
  S   H   16    0.0243   -0.0057   -0.0049   -0.0048   -0.0018   -0.0044    0.0245   -0.0040
  S   C   17   -0.0377   -0.0196   -0.0080   -0.0074   -0.0368   -0.0062   -0.0119   -0.0158
  Px  C   17    0.0100    0.0106    0.0020    0.0018    0.0089    0.0017    0.0038    0.0023
  Py  C   17    0.0078    0.0122    0.0008    0.0002    0.0110    0.0011    0.0054    0.0070
  Pz  C   17   -0.0017   -0.0007    0.0019    0.0045   -0.0051    0.0048   -0.0077   -0.0059
  S   H   18   -0.0121    0.0016   -0.0020   -0.0018   -0.0124   -0.0011   -0.0041   -0.0062
  S   C   19   -0.0200   -0.0170   -0.0118   -0.0132   -0.0187   -0.0120    0.0114   -0.0061
  Px  C   19   -0.0009    0.0063    0.0014    0.0030   -0.0008    0.0027   -0.0038   -0.0016
  Py  C   19    0.0026    0.0090   -0.0000    0.0015    0.0088    0.0023   -0.0002    0.0041
  Pz  C   19   -0.0152   -0.0057    0.0006   -0.0011   -0.0111   -0.0011   -0.0114   -0.0020
  S   H   20   -0.0053   -0.0015   -0.0055   -0.0047   -0.0036   -0.0040    0.0079   -0.0025
  S   O   21    0.0041    0.1677   -0.0294   -0.0207    0.2897    0.0146    0.1116    0.4337
  Px  O   21    0.0007    0.0387   -0.0044   -0.0041    0.0575    0.0030    0.0220    0.0857
  Py  O   21    0.0006    0.0094    0.0021    0.0006   -0.0010    0.0004    0.0001    0.0087
  Pz  O   21   -0.0009   -0.0278    0.0070    0.0040   -0.0553   -0.0023   -0.0199   -0.0673
  S   H   22    0.0013    0.0580   -0.0145   -0.0090    0.1160    0.0051    0.0420    0.1429
  S   H   23    0.0020    0.0844   -0.0091   -0.0077    0.1119    0.0060    0.0424    0.1663
  S   O   24   -0.1227    0.0478    0.0015    0.0035    0.0830    0.0141   -0.1887    0.0158
  Px  O   24    0.0231   -0.0091   -0.0030   -0.0006   -0.0186   -0.0029    0.0455   -0.0036
  Py  O   24    0.0094   -0.0037   -0.0045   -0.0005   -0.0138   -0.0020    0.0412   -0.0034
  Pz  O   24   -0.0237    0.0060    0.0030    0.0001    0.0187    0.0022   -0.0570    0.0035
  S   H   25   -0.0421    0.0124    0.0007    0.0004    0.0241    0.0033   -0.0622    0.0036
  S   H   26   -0.0445    0.0180    0.0043    0.0014    0.0339    0.0056   -0.0793    0.0065
  S   O   27    0.0575    0.1119   -0.0966   -0.0341    0.7109    0.0406    0.1273   -0.3165
  Px  O   27    0.0115    0.0217   -0.0159   -0.0064    0.1320    0.0075    0.0230   -0.0600
  Py  O   27    0.0025    0.0086   -0.0046   -0.0020    0.0444    0.0027    0.0093   -0.0196
  Pz  O   27   -0.0105   -0.0126    0.0145    0.0050   -0.1096   -0.0064   -0.0153    0.0694
  S   H   28    0.0277    0.0429   -0.0410   -0.0134    0.2793    0.0159    0.0429   -0.1267
  S   H   29    0.0202    0.0446   -0.0338   -0.0122    0.2522    0.0144    0.0464   -0.1008
  S   O   30   -0.0630    0.0041   -0.0331   -0.0003   -0.0021   -0.0004    0.0014   -0.0002
  Px  O   30    0.0060   -0.0005    0.0048    0.0000    0.0005    0.0001   -0.0002    0.0001
  Py  O   30    0.0119   -0.0007    0.0061    0.0001    0.0004    0.0001   -0.0004   -0.0000
  Pz  O   30   -0.0209    0.0013   -0.0114   -0.0001   -0.0008   -0.0002    0.0005   -0.0001
  S   H   31   -0.0227    0.0014   -0.0114   -0.0001   -0.0007   -0.0002    0.0005   -0.0000
  S   H   32   -0.0241    0.0016   -0.0130   -0.0001   -0.0009   -0.0002    0.0005   -0.0001
  S   O   33    0.6202   -0.0482    0.4896    0.0030    0.0493    0.0079   -0.0135    0.0092
  Px  O   33    0.0544   -0.0064    0.0636   -0.0002    0.0076    0.0007    0.0033    0.0021
  Py  O   33   -0.1620    0.0134   -0.1366   -0.0008   -0.0142   -0.0022    0.0033   -0.0031
  Pz  O   33   -0.0071    0.0002   -0.0062   -0.0002   -0.0002   -0.0003   -0.0008    0.0000
  S   H   34    0.2441   -0.0188    0.1886    0.0012    0.0186    0.0030   -0.0065    0.0033
  S   H   35    0.2143   -0.0175    0.1758    0.0008    0.0172    0.0026   -0.0004    0.0033
  S   O   36   -0.2197   -0.0102    0.1195   -0.0029    0.0935    0.0069   -0.2025    0.0072
  Px  O   36    0.0554    0.0026   -0.0293    0.0007   -0.0221   -0.0016    0.0473   -0.0017
  Py  O   36    0.0003    0.0001    0.0011   -0.0001    0.0033    0.0003   -0.0132    0.0008
  Pz  O   36    0.0036    0.0002   -0.0019    0.0000   -0.0013   -0.0001    0.0027   -0.0001
  S   H   37   -0.0754   -0.0035    0.0377   -0.0008    0.0245    0.0018   -0.0422    0.0010
  S   H   38   -0.0744   -0.0033    0.0402   -0.0010    0.0322    0.0024   -0.0727    0.0027
  S   O   39   -0.0049    0.0053    0.0000    0.0205   -0.0482    0.8479    0.0086   -0.0035
  Px  O   39   -0.0013    0.0014    0.0000    0.0051   -0.0117    0.2045    0.0020   -0.0008
  Py  O   39    0.0002   -0.0002   -0.0000   -0.0013    0.0030   -0.0535   -0.0006    0.0003
  Pz  O   39   -0.0006    0.0007    0.0000    0.0026   -0.0060    0.1064    0.0011   -0.0005
  S   H   40   -0.0018    0.0018    0.0000    0.0074   -0.0171    0.3002    0.0030   -0.0013
  S   H   41   -0.0023    0.0025    0.0000    0.0080   -0.0185    0.3202    0.0031   -0.0010
  S   O   42   -0.0015    0.0009   -0.0000    0.0029   -0.0066    0.0909   -0.0002   -0.0015
  Px  O   42    0.0002   -0.0002    0.0000   -0.0006    0.0014   -0.0208   -0.0001    0.0002
  Py  O   42   -0.0004    0.0002   -0.0000    0.0007   -0.0017    0.0216   -0.0001   -0.0004
  Pz  O   42    0.0001    0.0000    0.0000   -0.0001    0.0002   -0.0020    0.0000    0.0001
  S   H   43   -0.0006    0.0004   -0.0000    0.0012   -0.0027    0.0390   -0.0000   -0.0005
  S   H   44   -0.0009    0.0006   -0.0000    0.0015   -0.0033    0.0422   -0.0002   -0.0007
  S   O   45    0.0783    0.0071   -0.1032    0.0064   -0.2025   -0.0148    0.7564   -0.0450
  Px  O   45   -0.0204   -0.0004    0.0142   -0.0005    0.0157    0.0012   -0.0349    0.0007
  Py  O   45   -0.0100   -0.0022    0.0145   -0.0009    0.0358    0.0027   -0.1575    0.0109
  Pz  O   45   -0.0101   -0.0002    0.0113   -0.0012    0.0219    0.0012   -0.0710    0.0034
  S   H   46    0.0302    0.0022   -0.0375    0.0025   -0.0734   -0.0052    0.2653   -0.0151
  S   H   47    0.0205    0.0040   -0.0304    0.0015   -0.0586   -0.0044    0.2295   -0.0140
  S   O   48    0.0012    0.1707    0.0150   -0.0013    0.0395    0.0107    0.0357    0.6042
  Px  O   48    0.0003    0.0431    0.0041   -0.0001    0.0070    0.0025    0.0072    0.1253
  Py  O   48    0.0000    0.0233    0.0022   -0.0001    0.0043    0.0009    0.0045    0.0842
  Pz  O   48   -0.0001   -0.0230   -0.0015    0.0004   -0.0083   -0.0012   -0.0057   -0.0798
  S   H   49    0.0005    0.0633    0.0051   -0.0006    0.0168    0.0037    0.0135    0.2113
  S   H   50    0.0005    0.0866    0.0081   -0.0003    0.0142    0.0047    0.0144    0.2473
  S   O   51    0.0347    0.0435   -0.4444    0.0059   -0.0811   -0.0042   -0.0530   -0.0318
  Px  O   51    0.0020    0.0085   -0.0856    0.0010   -0.0147   -0.0008   -0.0086   -0.0054
  Py  O   51   -0.0204   -0.0059    0.0678   -0.0014    0.0179    0.0008    0.0123    0.0097
  Pz  O   51    0.0060   -0.0026    0.0350   -0.0007    0.0124    0.0007    0.0042    0.0076
  S   H   52   -0.0171    0.0112   -0.1162    0.0013   -0.0225   -0.0013   -0.0082   -0.0086
  S   H   53    0.0349    0.0172   -0.1777    0.0027   -0.0344   -0.0016   -0.0238   -0.0143
  S   O   54    0.2677   -0.0020   -0.2015    0.0138   -0.1153   -0.0010   -0.2736    0.0593
  Px  O   54    0.0808    0.0006   -0.0680    0.0039   -0.0437   -0.0014   -0.0505    0.0181
  Py  O   54    0.0120    0.0026   -0.0119    0.0003    0.0143    0.0016   -0.0370   -0.0020
  Pz  O   54   -0.0189    0.0047    0.0103   -0.0030    0.0340    0.0009    0.0482   -0.0190
  S   H   55    0.1070   -0.0010   -0.0800    0.0058   -0.0451   -0.0001   -0.1221    0.0249
  S   H   56    0.0948   -0.0006   -0.0724    0.0041   -0.0506   -0.0020   -0.0311    0.0154
  S   O   57   -0.4535   -0.0543    0.4481   -0.0063    0.0071   -0.0026    0.1249    0.0103
  Px  O   57   -0.0875   -0.0124    0.1044   -0.0014    0.0059   -0.0002    0.0205    0.0027
  Py  O   57    0.0746    0.0085   -0.0682    0.0009    0.0017    0.0006   -0.0219   -0.0017
  Pz  O   57    0.0075    0.0023   -0.0189    0.0001    0.0011    0.0002   -0.0057   -0.0020
  S   H   58   -0.1536   -0.0197    0.1586   -0.0020    0.0051   -0.0005    0.0296    0.0038
  S   H   59   -0.1562   -0.0188    0.1535   -0.0021    0.0005   -0.0010    0.0436    0.0037
  S   O   60   -0.0074   -0.0087    0.0006    0.8491    0.0456   -0.0194    0.0104    0.0051
  Px  O   60   -0.0003   -0.0004    0.0000    0.0397    0.0022   -0.0010    0.0005    0.0003
  Py  O   60    0.0002    0.0002   -0.0000   -0.0321   -0.0019    0.0008   -0.0005   -0.0003
  Pz  O   60    0.0022    0.0026   -0.0002   -0.2424   -0.0129    0.0055   -0.0029   -0.0013
  S   H   61   -0.0034   -0.0040    0.0003    0.3610    0.0191   -0.0080    0.0042    0.0019
  S   H   62   -0.0026   -0.0030    0.0002    0.2869    0.0153   -0.0065    0.0034    0.0016
  S   O   63   -0.0000    0.0209    0.0025    0.0003    0.0001    0.0027    0.0028    0.0915
  Px  O   63   -0.0000    0.0051    0.0006    0.0001   -0.0002    0.0007    0.0006    0.0218
  Py  O   63    0.0000   -0.0027   -0.0003   -0.0000    0.0000   -0.0004   -0.0003   -0.0083
  Pz  O   63   -0.0000   -0.0019   -0.0002    0.0000   -0.0002   -0.0001   -0.0002   -0.0030
  S   H   64   -0.0000    0.0109    0.0013    0.0002   -0.0001    0.0014    0.0012    0.0397
  S   H   65   -0.0000    0.0064    0.0008    0.0001   -0.0000    0.0008    0.0008    0.0279
  S   O   66   -0.0049    0.8024    0.1076    0.0181   -0.1798   -0.0158   -0.0433   -0.1969
  Px  O   66   -0.0015    0.2020    0.0286    0.0053   -0.0554   -0.0047   -0.0147   -0.0702
  Py  O   66    0.0003   -0.0455   -0.0054   -0.0007    0.0061    0.0007    0.0011    0.0083
  Pz  O   66   -0.0004    0.0557    0.0077    0.0013   -0.0132   -0.0008   -0.0026    0.0003
  S   H   67   -0.0022    0.3325    0.0445    0.0074   -0.0738   -0.0061   -0.0173   -0.0692
  S   H   68   -0.0017    0.2701    0.0360    0.0060   -0.0600   -0.0054   -0.0148   -0.0719
  S   O   69    0.0100    0.0403   -0.1386   -0.0078    0.1548    0.0084    0.0432    0.1603
  Px  O   69    0.0028    0.0118   -0.0368   -0.0023    0.0440    0.0024    0.0122    0.0423
  Py  O   69   -0.0007   -0.0019    0.0117    0.0002   -0.0051   -0.0003   -0.0011   -0.0067
  Pz  O   69   -0.0007   -0.0026    0.0145    0.0004   -0.0079   -0.0004   -0.0018   -0.0090
  S   H   70    0.0045    0.0189   -0.0531   -0.0037    0.0714    0.0038    0.0196    0.0633
  S   H   71    0.0046    0.0167   -0.0680   -0.0028    0.0553    0.0030    0.0141    0.0551
  S   H   72    0.0007    0.0035    0.0002   -0.0012    0.0036   -0.0162    0.0016    0.0049
  S   H   73   -0.0051   -0.0037   -0.0005    0.0027   -0.0094    0.0101   -0.0055   -0.0108


   Root No.      17        18        19        20        21        22        23        24

                17 A      18 A      19 A      20 A      21 A      22 A      23 A      24 A   

               -27.806   -27.621   -27.311   -27.110   -26.826   -25.233   -24.672   -22.080
  
  S   C    1   -0.0002    0.0070   -0.0045   -0.0880   -0.0100   -0.0013   -0.1578    0.3733
  Px  C    1    0.0045    0.0075   -0.0031   -0.0399    0.0179   -0.0034   -0.0278   -0.0228
  Py  C    1    0.0033    0.0090   -0.0044   -0.0706    0.0201   -0.0014   -0.0971    0.1772
  Pz  C    1   -0.0030   -0.0068    0.0035    0.0442   -0.0077    0.0031    0.0649   -0.1144
  S   O    2   -0.0091   -0.0151    0.0068    0.0847   -0.0125    0.0074    0.1115   -0.2970
  Px  O    2    0.0004    0.0000    0.0000    0.0037    0.0093   -0.0016    0.0025    0.0015
  Py  O    2   -0.0022   -0.0016    0.0003   -0.0094   -0.0296    0.0018   -0.0267    0.1150
  Pz  O    2    0.0011    0.0008    0.0000    0.0059    0.0350    0.0006    0.0162   -0.0765
  S   N    3    0.0082    0.0162   -0.0067   -0.0975    0.0252    0.0007   -0.0383   -0.1303
  Px  N    3   -0.0010   -0.0116    0.0076    0.1235   -0.0130    0.0053    0.2074   -0.3424
  Py  N    3   -0.0034    0.0039   -0.0028   -0.0782    0.0159    0.0047   -0.0877   -0.0083
  Pz  N    3    0.0020    0.0013    0.0006   -0.0048    0.0003   -0.0021    0.0073    0.0469
  S   H    4   -0.0053   -0.0006   -0.0025   -0.0390    0.0108    0.0041   -0.0233   -0.0913
  S   C    5    0.0036   -0.0277    0.0166    0.3399   -0.0551    0.0039    0.4179   -0.1419
  Px  C    5   -0.0019   -0.0063    0.0038    0.0501   -0.0118    0.0105    0.0451    0.0522
  Py  C    5    0.0004    0.0110   -0.0023   -0.1088    0.0230    0.0114   -0.0375   -0.1966
  Pz  C    5    0.0001    0.0065   -0.0015   -0.0635    0.0161   -0.0054    0.0023   -0.0319
  S   H    6    0.0014   -0.0113    0.0072    0.1395   -0.0176   -0.0031    0.1883   -0.0390
  S   C    7    0.0004   -0.0505    0.0166    0.4791   -0.0973   -0.0285    0.1638    0.3087
  Px  C    7   -0.0004    0.0014    0.0003   -0.0082    0.0010    0.0391    0.0208    0.0066
  Py  C    7    0.0008   -0.0014    0.0029    0.0477   -0.0070    0.0341    0.1061   -0.0902
  Pz  C    7    0.0015    0.0074    0.0014   -0.0117    0.0090   -0.0082    0.1919   -0.0271
  S   H    8   -0.0000   -0.0210    0.0070    0.1982   -0.0404   -0.0062    0.0755    0.1646
  S   H    9    0.0003   -0.0222    0.0064    0.1995   -0.0390   -0.0488    0.0476    0.1533
  S   C   10   -0.0040   -0.0543    0.0063    0.3017   -0.0729    0.0354   -0.3107    0.0469
  Px  C   10   -0.0006   -0.0004    0.0011    0.0200   -0.0045    0.1739    0.0137    0.0002
  Py  C   10    0.0004    0.0117    0.0008   -0.0184    0.0051    0.1479    0.0521   -0.0442
  Pz  C   10    0.0019   -0.0057    0.0064    0.1526   -0.0298   -0.0540    0.1067    0.1867
  S   C   11   -0.0027   -0.0438   -0.0030    0.0640   -0.0200   -0.3656   -0.2535   -0.1231
  Px  C   11   -0.0016   -0.0102    0.0010    0.0547   -0.0138    0.0795   -0.0724    0.0380
  Py  C   11   -0.0009   -0.0060    0.0003    0.0266   -0.0074    0.0315   -0.0556    0.0031
  Pz  C   11    0.0001   -0.0051    0.0057    0.1510   -0.0337    0.0858   -0.0846    0.1094
  S   H   12   -0.0005   -0.0176    0.0001    0.0567   -0.0143   -0.1693   -0.1003   -0.0261
  S   C   13   -0.0003   -0.0200   -0.0112   -0.2139    0.0466   -0.4058    0.1288   -0.0848
  Px  C   13   -0.0029   -0.0066   -0.0029   -0.0519    0.0109    0.0094    0.0277    0.0231
  Py  C   13   -0.0005    0.0039   -0.0013   -0.0431    0.0097    0.0396    0.0544    0.0502
  Pz  C   13   -0.0009   -0.0099    0.0014    0.0712   -0.0186   -0.0794   -0.1870   -0.1393
  S   H   14    0.0024   -0.0059   -0.0037   -0.0748    0.0169   -0.1756    0.0660   -0.0324
  S   C   15   -0.0043   -0.0050   -0.0123   -0.2945    0.0674   -0.0324    0.3640    0.2166
  Px  C   15   -0.0026   -0.0008   -0.0003   -0.0069    0.0012    0.1820    0.0028    0.0370
  Py  C   15   -0.0012    0.0086    0.0017    0.0159   -0.0036    0.1449   -0.0090    0.0321
  Pz  C   15   -0.0003   -0.0037   -0.0025   -0.0441    0.0083   -0.0471   -0.0336   -0.0972
  S   H   16   -0.0022   -0.0013   -0.0045   -0.1147    0.0272    0.0068    0.1894    0.1599
  S   C   17   -0.0050   -0.0207   -0.0003    0.0497   -0.0166    0.4468   -0.1910   -0.1577
  Px  C   17    0.0011    0.0049    0.0002   -0.0127    0.0044    0.0106    0.0530    0.0033
  Py  C   17    0.0011    0.0129    0.0007   -0.0203    0.0059    0.0322    0.0511   -0.0121
  Pz  C   17    0.0012   -0.0106    0.0045    0.1353   -0.0305   -0.1023   -0.0871    0.0247
  S   H   18   -0.0012   -0.0059    0.0011    0.0377   -0.0099    0.1988   -0.0641   -0.0710
  S   C   19   -0.0066   -0.0018   -0.0079   -0.1920    0.0415    0.4251    0.1426    0.0434
  Px  C   19    0.0007   -0.0026    0.0022    0.0608   -0.0140    0.0791   -0.0812   -0.0707
  Py  C   19    0.0007    0.0079    0.0025    0.0385   -0.0085    0.0512   -0.0392   -0.0349
  Pz  C   19   -0.0003   -0.0049    0.0009    0.0409   -0.0117    0.1011   -0.1424   -0.1483
  S   H   20   -0.0029    0.0014   -0.0027   -0.0749    0.0167    0.2097    0.0766    0.0370
  S   O   21    0.0336    0.6410    0.0676    0.0953   -0.0140   -0.0291   -0.0064    0.0054
  Px  O   21   -0.0023    0.1240    0.0121    0.0186   -0.0027   -0.0017   -0.0021   -0.0030
  Py  O   21   -0.0087   -0.0035   -0.0022    0.0052   -0.0011   -0.0023   -0.0026   -0.0013
  Pz  O   21   -0.0111   -0.1036   -0.0115   -0.0135    0.0018    0.0028   -0.0030   -0.0022
  S   H   22    0.0180    0.2166    0.0232    0.0217   -0.0025   -0.0033    0.0039    0.0022
  S   H   23    0.0022    0.2212    0.0203    0.0356   -0.0053   -0.0069   -0.0042   -0.0014
  S   O   24    0.0028    0.0125    0.0042    0.0720   -0.0144    0.0255   -0.0350   -0.0080
  Px  O   24   -0.0008   -0.0025   -0.0007   -0.0109    0.0021   -0.0001    0.0027    0.0011
  Py  O   24   -0.0009   -0.0023   -0.0008   -0.0144    0.0032   -0.0024    0.0176    0.0147
  Pz  O   24    0.0006    0.0015    0.0001    0.0004    0.0001   -0.0020    0.0024   -0.0013
  S   H   25    0.0004    0.0016    0.0001    0.0005    0.0004   -0.0022    0.0085    0.0046
  S   H   26    0.0014    0.0048    0.0015    0.0262   -0.0052    0.0045   -0.0125   -0.0058
  S   O   27   -0.1704   -0.1867   -0.0122    0.0240   -0.0059   -0.0085   -0.0231   -0.0122
  Px  O   27   -0.0475   -0.0261   -0.0018    0.0033   -0.0008    0.0001   -0.0012    0.0007
  Py  O   27   -0.0165   -0.0083   -0.0005    0.0062   -0.0015   -0.0018   -0.0101   -0.0111
  Pz  O   27    0.0370    0.0505    0.0042   -0.0001    0.0003    0.0006    0.0003   -0.0031
  S   H   28   -0.0668   -0.0771   -0.0054    0.0031   -0.0009   -0.0008    0.0020    0.0066
  S   H   29   -0.0605   -0.0510   -0.0030    0.0105   -0.0024   -0.0023   -0.0096   -0.0071
  S   O   30   -0.0005    0.0001    0.0000   -0.0000   -0.0000    0.0020   -0.0002    0.0005
  Px  O   30    0.0002   -0.0000    0.0000    0.0004   -0.0001   -0.0001   -0.0002   -0.0004
  Py  O   30   -0.0001    0.0001    0.0000    0.0001   -0.0000   -0.0007   -0.0000   -0.0005
  Pz  O   30   -0.0001   -0.0000   -0.0000   -0.0004    0.0001   -0.0001    0.0003    0.0001
[...]
  
  S  H  62  -0.00000     0.00001     0.00001     0.00000    -0.00000    -0.00000
  
  S  O  63  -0.00003    -0.00023    -0.00003    -0.00001     0.00000     0.00000
 PX  O  63  -0.00003    -0.00032    -0.00004    -0.00001     0.00000     0.00000
 PY  O  63   0.00001     0.00037     0.00005     0.00001    -0.00000    -0.00000
 PZ  O  63   0.00002     0.00011     0.00003     0.00001    -0.00000    -0.00000
  
  S  H  64   0.00005     0.00052     0.00004     0.00001    -0.00000    -0.00000
  
  S  H  65   0.00006     0.00031     0.00004     0.00001    -0.00000    -0.00000
  
  S  O  66   0.00596    -0.00023    -0.00050    -0.00047    -0.00000     0.00000
 PX  O  66   0.19394    -0.00017    -0.00073     0.00002     0.00000    -0.00000
 PY  O  66   0.98005     0.00013     0.00015     0.00043     0.00000    -0.00001
 PZ  O  66   0.01431    -0.00030    -0.00041     0.00006    -0.00000     0.00000
  
  S  H  67  -0.00034     0.00044     0.00146     0.00051    -0.00000    -0.00000
  
  S  H  68  -0.00034     0.00030     0.00095     0.00084     0.00000    -0.00000
  
  S  O  69   0.00015    -0.00003     0.00370     0.00241    -0.00000     0.00056
 PX  O  69   0.00044    -0.00010     0.00799     0.00421    -0.00000    -0.04107
 PY  O  69   0.00011    -0.00002     0.00228     0.00011     0.00000     0.72772
 PZ  O  69   0.00010    -0.00002     0.00191    -0.00017     0.00000    -0.68463
  
  S  H  70  -0.00042     0.00010    -0.01678    -0.00871     0.00000    -0.00002
  
  S  H  71  -0.00008     0.00003    -0.00191    -0.00422     0.00000    -0.00005
  
  S  H  72   0.00002     0.07218     0.00003    -0.00000    -0.00001    -0.00002
  
  S  H  73  -0.00023    -0.00373     0.00018     0.00000    -0.00010    -0.00000




    ROOT NO.   91          92          93          94          95          96

           -11.07224   -10.97642   -10.88695   -10.87157   -10.53947   -10.48939
  
  
  S  C   1   0.00529    -0.00007    -0.00004    -0.00251    -0.00021     0.00021
 PX  C   1   0.07444    -0.00014     0.00012    -0.00444    -0.00022     0.00030
 PY  C   1   0.21687     0.00004     0.00066     0.00023     0.00155    -0.00058
 PZ  C   1   0.35841     0.00001     0.00088     0.00028     0.00184    -0.00074
  
  S  O   2   0.00032     0.00002     0.00004     0.00035     0.00012    -0.00007
 PX  O   2  -0.01845     0.00008    -0.00004     0.00162     0.00007    -0.00003
 PY  O   2  -0.05355     0.00005    -0.00008     0.00106    -0.00014     0.00003
 PZ  O   2  -0.08773    -0.00004    -0.00037    -0.00071    -0.00073     0.00044
  
  S  N   3   0.02877     0.00033    -0.00009     0.00921     0.00044    -0.00052
 PX  N   3   0.18113     0.00007    -0.00026     0.00121    -0.00018     0.00036
 PY  N   3   0.45593     0.00041     0.00063     0.00769     0.00085    -0.00132
 PZ  N   3   0.74847    -0.00027    -0.00004    -0.00527    -0.00025     0.00043
  
  S  H   4  -0.00075    -0.00070     0.00007    -0.02477    -0.00116     0.00137
  
  S  C   5  -0.01142    -0.00006     0.00616    -0.00172     0.01267    -0.00800
 PX  C   5   0.00604     0.00016    -0.00043     0.00437    -0.00061     0.00011
 PY  C   5   0.03813    -0.00003    -0.00788    -0.00206    -0.01594     0.01049
 PZ  C   5   0.04850     0.00002    -0.00694     0.00080    -0.01261     0.00851
  
  S  H   6  -0.01925     0.00008    -0.00157     0.00079    -0.00286     0.00241
  
  S  C   7   0.02370     0.00002    -0.00033     0.00019    -0.00130     0.00235
 PX  C   7   0.00214    -0.00002    -0.00046    -0.00034     0.00723     0.00242
 PY  C   7   0.02679     0.00003    -0.00190     0.00032    -0.01708     0.00111
 PZ  C   7   0.01873     0.00002    -0.00469     0.00030    -0.00861     0.00316
  
  S  H   8  -0.00547    -0.00002    -0.01265    -0.00060    -0.02025     0.01609
  
  S  H   9   0.00149     0.00001     0.00143     0.00023    -0.00245    -0.00264
  
  S  C  10   0.00051     0.00001    -0.01725     0.00024    -0.02608     0.01390
 PX  C  10   0.00026    -0.00001     0.13152    -0.00005     0.36612    -0.20639
 PY  C  10   0.00122     0.00001    -0.14317     0.00013    -0.42384     0.22939
 PZ  C  10   0.00049     0.00001    -0.01024     0.00024    -0.04342     0.01723
  
  S  C  11   0.00115     0.00000     0.00159     0.00003     0.07566     0.00630
 PX  C  11   0.00142     0.00000    -0.07249    -0.00007     0.51694     0.06478
 PY  C  11  -0.00021    -0.00000     0.07822     0.00008    -0.46840    -0.06677
 PZ  C  11   0.00005    -0.00000     0.01734    -0.00001    -0.10747    -0.01712
  
  S  H  12  -0.00011    -0.00000     0.00178    -0.00003    -0.00682    -0.00231
  
  S  C  13  -0.00018     0.00000    -0.00725     0.00010    -0.00422    -0.00097
 PX  C  13   0.00006     0.00000    -0.33996    -0.00004     0.18995     0.10593
 PY  C  13  -0.00006     0.00000     0.46683     0.00014    -0.24655    -0.14552
 PZ  C  13  -0.00035    -0.00000     0.13611     0.00003    -0.08017    -0.04810
  
  S  H  14   0.00018    -0.00000     0.00985    -0.00002    -0.00254    -0.00298
  
  S  C  15   0.00002     0.00000     0.00637     0.00013    -0.00015     0.00209
 PX  C  15  -0.00042    -0.00000    -0.38761    -0.00013    -0.06006    -0.06785
 PY  C  15   0.00076     0.00001     0.57657     0.00024     0.09581     0.10693
 PZ  C  15   0.00006     0.00000     0.09336     0.00005     0.01358     0.01502
  
  S  H  16  -0.00003    -0.00000    -0.00094    -0.00000    -0.00341    -0.00295
  
  S  C  17  -0.00027     0.00001     0.00984     0.00019     0.01179    -0.04695
 PX  C  17   0.00094     0.00001     0.06975    -0.00010     0.07407    -0.39717
 PY  C  17   0.00001     0.00001    -0.10345     0.00026    -0.11272     0.55963
 PZ  C  17  -0.00057     0.00001     0.00133     0.00004     0.00103     0.01278
  
  S  H  18  -0.00031    -0.00000    -0.00587    -0.00005    -0.00295     0.00914
  
  S  C  19   0.00003     0.00000     0.00291     0.00014    -0.00017     0.00520
 PX  C  19   0.00023    -0.00001    -0.16152    -0.00025    -0.11472    -0.33430
 PY  C  19  -0.00039     0.00001     0.23940     0.00035     0.17312     0.50487
 PZ  C  19  -0.00004    -0.00000     0.02446     0.00004     0.01580     0.05027
  
  S  H  20  -0.00009    -0.00000     0.00074    -0.00002     0.00018    -0.00137
  
  S  O  21   0.00111     0.00011    -0.00577     0.00686     0.00162    -0.00558
 PX  O  21   0.00106     0.00017    -0.00410     0.00939     0.00154    -0.00500
 PY  O  21  -0.00013     0.00014     0.00733     0.00486    -0.00177     0.00502
 PZ  O  21  -0.00120    -0.00003     0.00830    -0.00491    -0.00189     0.00705
  
  S  H  22  -0.00317    -0.00013     0.03280    -0.00895    -0.00741     0.02489
  
  S  H  23  -0.00307    -0.00019     0.00419    -0.02576    -0.00209     0.00960
  
  S  O  24   0.00001     0.00000     0.01190     0.00002    -0.00232     0.00229
 PX  O  24  -0.00002    -0.00000    -0.00875    -0.00002     0.00199    -0.00140
 PY  O  24   0.00001     0.00000     0.00460     0.00001    -0.00113     0.00282
 PZ  O  24   0.00002     0.00000     0.01970     0.00003    -0.00516     0.00396
  
  S  H  25  -0.00005    -0.00000    -0.05743    -0.00005     0.01347    -0.01171
  
  S  H  26  -0.00002    -0.00000    -0.01898    -0.00002     0.00150    -0.00119
  
  S  O  27   0.00010     0.00001    -0.00286     0.00049    -0.00073    -0.00147
 PX  O  27   0.00010     0.00001    -0.00282     0.00057    -0.00107    -0.00183
 PY  O  27   0.00004     0.00001    -0.00055     0.00024     0.00007     0.00028
 PZ  O  27   0.00003     0.00001     0.00275     0.00027     0.00095     0.00089
  
  S  H  28  -0.00015    -0.00001     0.01054    -0.00059     0.00250     0.00356
  
  S  H  29  -0.00018    -0.00001     0.00553    -0.00068     0.00167     0.00302
  
  S  O  30  -0.00000    -0.00000     0.00000     0.00000    -0.00001    -0.00000
 PX  O  30  -0.00000     0.00000     0.00002     0.00000    -0.00000    -0.00001
 PY  O  30   0.00000    -0.00000    -0.00001     0.00000     0.00002     0.00001
 PZ  O  30  -0.00000    -0.00000    -0.00001     0.00000     0.00000     0.00000
  
  S  H  31   0.00000    -0.00000    -0.00002    -0.00000     0.00004     0.00001
  
  S  H  32   0.00000    -0.00000     0.00004    -0.00000     0.00001    -0.00001
  
  S  O  33  -0.00001     0.00000     0.00072     0.00000    -0.00011    -0.00007
 PX  O  33  -0.00000     0.00000     0.00103     0.00000    -0.00003     0.00007
 PY  O  33   0.00001    -0.00000    -0.00098    -0.00000     0.00044     0.00016
 PZ  O  33  -0.00001     0.00000    -0.00044     0.00000     0.00008    -0.00010
  
  S  H  34   0.00002    -0.00000    -0.00110    -0.00000     0.00062     0.00032
  
  S  H  35   0.00001    -0.00000    -0.00354    -0.00001     0.00011     0.00017
  
  S  O  36   0.00000     0.00000     0.00051     0.00000     0.00023     0.00035
 PX  O  36  -0.00000    -0.00000    -0.00085    -0.00001    -0.00039    -0.00058
 PY  O  36  -0.00000     0.00000    -0.00077    -0.00000    -0.00034    -0.00053
 PZ  O  36   0.00000     0.00000    -0.00004    -0.00000    -0.00001    -0.00004
  
  S  H  37  -0.00001    -0.00000    -0.00223    -0.00001    -0.00108    -0.00166
  
  S  H  38  -0.00000    -0.00000    -0.00039    -0.00001    -0.00023    -0.00028
  
  S  O  39  -0.00227     0.00000    -0.00002     0.00008     0.00006     0.00002
 PX  O  39  -0.00552     0.00001    -0.00005     0.00019     0.00009     0.00004
 PY  O  39  -0.00262     0.00000    -0.00002     0.00009     0.00003     0.00001
 PZ  O  39  -0.00121     0.00000    -0.00001     0.00004     0.00003     0.00001
  
  S  H  40   0.00147    -0.00000     0.00002    -0.00005    -0.00008    -0.00002
  
  S  H  41   0.00810    -0.00001     0.00005    -0.00025    -0.00035    -0.00007
  
  S  O  42   0.00139     0.00000     0.00001     0.00003     0.00004    -0.00002
 PX  O  42  -0.00043    -0.00000    -0.00000    -0.00002    -0.00001     0.00000
 PY  O  42   0.00419     0.00000     0.00004     0.00009     0.00010    -0.00005
 PZ  O  42  -0.00136    -0.00000    -0.00001    -0.00004    -0.00003     0.00002
  
  S  H  43  -0.00087    -0.00000    -0.00001    -0.00002    -0.00004     0.00001
  
  S  H  44  -0.00518    -0.00000    -0.00006    -0.00009    -0.00015     0.00006
  
  S  O  45   0.00001     0.00000     0.00460     0.00001     0.00137     0.00204
 PX  O  45  -0.00001    -0.00000    -0.00123    -0.00001    -0.00055    -0.00093
 PY  O  45  -0.00002    -0.00000    -0.00742    -0.00001    -0.00187    -0.00323
 PZ  O  45   0.00001     0.00000     0.00199     0.00000     0.00046     0.00094
  
  S  H  46  -0.00002    -0.00000    -0.00709    -0.00001    -0.00301    -0.00367
  
  S  H  47  -0.00004    -0.00000    -0.02410    -0.00003    -0.00592    -0.00842
  
  S  O  48  -0.00025     0.00362    -0.00012     0.00346     0.00004    -0.00020
 PX  O  48  -0.00044     0.00751    -0.00011    -0.20741     0.00006    -0.00026
 PY  O  48  -0.00011     0.00196    -0.00002     0.78906    -0.00002    -0.00006
 PZ  O  48  -0.00001    -0.00004     0.00023     0.57664    -0.00007     0.00031
  
  S  H  49   0.00028    -0.00221     0.00029     0.00003    -0.00004     0.00037
  
  S  H  50   0.00103    -0.01520     0.00018     0.00077    -0.00005     0.00044
  
  S  O  51   0.00000     0.00000    -0.00009     0.00001    -0.00001    -0.00000
 PX  O  51   0.00000     0.00000    -0.00010     0.00002    -0.00000    -0.00001
 PY  O  51   0.00000     0.00000    -0.00008     0.00001     0.00000    -0.00001
 PZ  O  51   0.00000     0.00000     0.00005     0.00000     0.00003     0.00000
  
  S  H  52  -0.00000    -0.00000     0.00037    -0.00001     0.00007    -0.00000
  
  S  H  53   0.00000    -0.00000     0.00018    -0.00001     0.00005    -0.00001
  
  S  O  54   0.00001     0.00000    -0.00022     0.00004     0.00006     0.00005
 PX  O  54   0.00001    -0.00000     0.00024    -0.00000     0.00023     0.00037
 PY  O  54   0.00000     0.00000    -0.00088     0.00003    -0.00037    -0.00043
 PZ  O  54   0.00000     0.00000     0.00044     0.00003     0.00005    -0.00007
  
  S  H  55  -0.00001    -0.00000     0.00149    -0.00004     0.00027     0.00025
  
  S  H  56  -0.00002    -0.00000    -0.00028    -0.00005    -0.00055    -0.00065
  
  S  O  57   0.00000     0.00000    -0.00017     0.00001    -0.00003    -0.00002
 PX  O  57   0.00001     0.00000    -0.00027     0.00002    -0.00003    -0.00004
 PY  O  57  -0.00000    -0.00000     0.00005    -0.00000     0.00001     0.00000
 PZ  O  57   0.00000     0.00000    -0.00011     0.00001    -0.00001    -0.00002
  
  S  H  58  -0.00001    -0.00000     0.00086    -0.00002     0.00015     0.00005
  
  S  H  59  -0.00000    -0.00000     0.00017    -0.00001     0.00004     0.00001
  
  S  O  60   0.00003     0.00000     0.00006     0.00000    -0.00032    -0.00006
 PX  O  60   0.00003     0.00000     0.00000     0.00000     0.00007    -0.00001
 PY  O  60  -0.00000     0.00000     0.00001     0.00000     0.00010    -0.00001
 PZ  O  60  -0.00004    -0.00000    -0.00016    -0.00000     0.00048     0.00011
  
  S  H  61  -0.00005    -0.00000    -0.00015    -0.00000     0.00145     0.00020
  
  S  H  62  -0.00008    -0.00000    -0.00007    -0.00000     0.00061     0.00009
  
  S  O  63  -0.00055     0.00349     0.00000    -0.00042     0.00002    -0.00002
 PX  O  63  -0.00083    -0.21116     0.00001    -0.00072     0.00003    -0.00003
 PY  O  63   0.00069    -0.30695    -0.00001    -0.00000    -0.00003     0.00003
 PZ  O  63   0.00005     0.92783     0.00000    -0.00018    -0.00001     0.00001
  
  S  H  64   0.00257     0.00012    -0.00003     0.00116    -0.00006     0.00006
  
  S  H  65   0.00050    -0.00013     0.00000     0.00127    -0.00001     0.00002
  
  S  O  66   0.00011     0.00044    -0.00007     0.00226     0.00006    -0.00106
 PX  O  66   0.00006     0.00041     0.00006     0.00215     0.00001    -0.00128
 PY  O  66  -0.00008    -0.00007     0.00009    -0.00110    -0.00015     0.00030
 PZ  O  66   0.00004     0.00067     0.00022     0.00107     0.00020    -0.00009
  
  S  H  67  -0.00029    -0.00123    -0.00012    -0.00551    -0.00020     0.00281
  
  S  H  68  -0.00017    -0.00036     0.00025    -0.00396     0.00019     0.00349
  
  S  O  69   0.00005     0.00000    -0.00077     0.00019     0.00010    -0.00009
 PX  O  69   0.00013     0.00001    -0.00144     0.00052     0.00025    -0.00034
 PY  O  69   0.00003     0.00000     0.00004     0.00012    -0.00004    -0.00013
 PZ  O  69   0.00003     0.00000     0.00012     0.00011    -0.00002    -0.00011
  
  S  H  70  -0.00020    -0.00001     0.00259    -0.00061    -0.00025     0.00034
  
  S  H  71  -0.00004    -0.00000     0.00192    -0.00012    -0.00016    -0.00012
  
  S  H  72  -0.00369     0.00001    -0.00018     0.00008    -0.00035     0.00022
  
  S  H  73  -0.00961    -0.00003    -0.00007    -0.00021     0.00006     0.00070




    ROOT NO.   97

           -10.35155
  
  
  S  C   1  -0.00200
 PX  C   1   0.00044
 PY  C   1   0.00217
 PZ  C   1  -0.00191
  
  S  O   2   0.00128
 PX  O   2   0.00013
 PY  O   2   0.00155
 PZ  O   2  -0.00140
  
  S  N   3   0.00012
 PX  N   3  -0.00014
 PY  N   3   0.00006
 PZ  N   3   0.00029
  
  S  H   4  -0.00043
  
  S  C   5  -0.00015
 PX  C   5  -0.00013
 PY  C   5   0.00020
 PZ  C   5  -0.00041
  
  S  H   6   0.00061
  
  S  C   7   0.00025
 PX  C   7  -0.00037
 PY  C   7  -0.00023
 PZ  C   7   0.00010
  
  S  H   8   0.00003
  
  S  H   9  -0.00058
  
  S  C  10  -0.00003
 PX  C  10  -0.00004
 PY  C  10   0.00000
 PZ  C  10  -0.00003
  
  S  C  11   0.00003
 PX  C  11  -0.00003
 PY  C  11  -0.00005
 PZ  C  11   0.00003
  
  S  H  12  -0.00003
  
  S  C  13  -0.00000
 PX  C  13  -0.00000
 PY  C  13   0.00000
 PZ  C  13  -0.00001
  
  S  H  14  -0.00000
  
  S  C  15   0.00000
 PX  C  15  -0.00001
 PY  C  15   0.00000
 PZ  C  15   0.00000
  
  S  H  16  -0.00000
  
  S  C  17   0.00003
 PX  C  17  -0.00002
 PY  C  17  -0.00002
 PZ  C  17   0.00002
  
  S  H  18   0.00000
  
  S  C  19  -0.00000
 PX  C  19   0.00000
 PY  C  19  -0.00001
 PZ  C  19  -0.00001
  
  S  H  20   0.00000
  
  S  O  21   0.00000
 PX  O  21   0.00001
 PY  O  21   0.00000
 PZ  O  21   0.00000
  
  S  H  22  -0.00001
  
  S  H  23  -0.00000
  
  S  O  24   0.00000
 PX  O  24  -0.00000
 PY  O  24   0.00000
 PZ  O  24   0.00000
  
  S  H  25  -0.00000
  
  S  H  26  -0.00000
  
  S  O  27   0.00000
 PX  O  27   0.00000
 PY  O  27   0.00000
 PZ  O  27   0.00000
  
  S  H  28  -0.00000
  
  S  H  29  -0.00000
  
  S  O  30   0.00000
 PX  O  30  -0.00000
 PY  O  30   0.00000
 PZ  O  30   0.00000
  
  S  H  31  -0.00000
  
  S  H  32  -0.00000
  
  S  O  33   0.00000
 PX  O  33   0.00000
 PY  O  33  -0.00000
 PZ  O  33   0.00000
  
  S  H  34  -0.00000
  
  S  H  35  -0.00000
  
  S  O  36  -0.00000
 PX  O  36   0.00000
 PY  O  36   0.00000
 PZ  O  36  -0.00000
  
  S  H  37   0.00000
  
  S  H  38   0.00000
  
  S  O  39   0.00460
 PX  O  39   0.00696
 PY  O  39  -0.00034
 PZ  O  39   0.00302
  
  S  H  40  -0.01008
  
  S  H  41  -0.01426
  
  S  O  42   0.00011
 PX  O  42   0.61828
 PY  O  42   0.33020
 PZ  O  42   0.71294
  
  S  H  43   0.00010
  
  S  H  44   0.00039
  
  S  O  45   0.00000
 PX  O  45  -0.00000
 PY  O  45  -0.00000
 PZ  O  45   0.00000
  
  S  H  46   0.00000
  
  S  H  47  -0.00000
  
  S  O  48   0.00001
 PX  O  48   0.00002
 PY  O  48  -0.00001
 PZ  O  48  -0.00000
  
  S  H  49  -0.00002
  
  S  H  50  -0.00001
  
  S  O  51   0.00000
 PX  O  51   0.00000
 PY  O  51   0.00000
 PZ  O  51   0.00000
  
  S  H  52   0.00000
  
  S  H  53  -0.00000
  
  S  O  54   0.00000
 PX  O  54   0.00000
 PY  O  54  -0.00000
 PZ  O  54   0.00000
  
  S  H  55  -0.00000
  
  S  H  56  -0.00000
  
  S  O  57   0.00000
 PX  O  57   0.00000
 PY  O  57  -0.00000
 PZ  O  57   0.00000
  
  S  H  58  -0.00000
  
  S  H  59  -0.00000
  
  S  O  60   0.00001
 PX  O  60  -0.00000
 PY  O  60  -0.00000
 PZ  O  60  -0.00002
  
  S  H  61  -0.00004
  
  S  H  62  -0.00002
  
  S  O  63   0.00000
 PX  O  63   0.00000
 PY  O  63  -0.00000
 PZ  O  63  -0.00000
  
  S  H  64  -0.00000
  
  S  H  65  -0.00000
  
  S  O  66   0.00000
 PX  O  66   0.00000
 PY  O  66  -0.00000
 PZ  O  66   0.00000
  
  S  H  67  -0.00000
  
  S  H  68  -0.00000
  
  S  O  69   0.00000
 PX  O  69   0.00000
 PY  O  69   0.00000
 PZ  O  69   0.00000
  
  S  H  70  -0.00000
  
  S  H  71  -0.00000
  
  S  H  72   0.00041
  
  S  H  73   0.00002

          BONDING CONTRIBUTION OF EACH M.O.

  1.8356  1.9333  1.7132  1.7104  1.7154  1.6270  1.7036  1.7221  1.6178  1.6131
  1.6913  1.7441  0.0009  0.0577  1.5440  1.6765  1.7328  0.0120  0.0480  1.7222
  1.6997  1.7202  1.9990  1.7772  0.0246  1.6817  1.5354  1.6611  1.6483  0.0579
  1.6155  1.6388  0.0008  1.7558  1.7049  1.5969  1.9991  0.0120  1.6638  1.9941
  1.7291  1.7170  1.9909  1.7300  0.0004  0.0101  0.0007  1.9977  0.0828  1.6852
  0.0000  1.9962  1.9508  1.6771  0.0005  0.0025  0.0118  0.0014  1.6761  1.6885
  0.0006  1.6221  1.6921  1.9556  1.9663  1.9871  1.9923  1.9410  1.9475  1.9386
  1.9255  1.9544  1.9402  1.9471  0.0729  0.0001  0.1214  1.1094  0.0750  0.0996
  0.0042  0.0416  0.0193  0.0001  0.0106  0.3054  0.0058  0.0143  0.0001  0.0001
  1.0768  0.0020  1.9788  0.0117  2.0010  2.0038  0.0026 -2.0199 -1.9764 -2.1298
 -1.7398 -1.9164 -1.9939 -1.7478 -1.7444 -1.7147 -1.7021 -1.7396 -1.7462 -1.9378
 -1.8735 -1.6945 -1.7425 -1.9415 -1.9514 -1.7251 -1.9879 -1.9845 -1.7037 -1.7752
 -1.9367 -1.7241 -1.7048 -1.8112 -1.9029 -1.8179 -1.9729 -1.6860 -1.7114 -1.6979
 -1.7524 -1.9440 -1.9126 -1.6555 -1.8982 -1.8669 -1.7132 -1.9613 -1.7809 -1.8698
 -1.7937 -1.9275 -1.8922 -1.8517 -1.9276 -1.7203 -1.6985 -1.9048 -1.6577 -1.7207
 -1.7150 -1.7101 -1.6971 -1.8128 -1.6787 -1.7087 -1.6969

           DATA FOR GRAPH WRITTEN TO DISK

 **********************
 *                    *
 * JOB ENDED NORMALLY *
 *                    *
 **********************



 TOTAL JOB TIME:             1.09 SECONDS

 == MOPAC DONE ==
