 *******************************************************************************
 ** Site#: 34139        For non-commercial use only    Version 20.070L 64BITS **
 *******************************************************************************
 ** Cite this program as: MOPAC2016, Version: 20.070L, James J. P. Stewart,   **
 ** Stewart Computational Chemistry, web: HTTP://OpenMOPAC.net. Days left: 322**
 *******************************************************************************
 **                                                                           **
 **                                MOPAC2016                                  **
 **                                                                           **
 *******************************************************************************

                              PM7 CALCULATION RESULTS

 *******************************************************************************
 *  CALCULATION DONE:                                Thu Apr 23 14:33:14 2020  *
 *  PM7        - The PM7 Hamiltonian to be used
 *  QMMM       - Generate energies and gradients for use in MM codes
 *  DIPOLE     - PRINT DIPOLE INSTEAD OF ENERGY IN TRAJECTORIES
 *  GEO-OK     - OVERRIDE INTERATOMIC DISTANCE AND OTHER SAFETY CHECKS
 *
 *
 *
 *                 CHARGE ON SYSTEM = 0
 *
 *
 *
 *  LET        - OVERRIDE SOME SAFETY CHECKS
 *  XYZ        - CARTESIAN COORDINATE SYSTEM TO BE USED
 *  FORCE      - FORCE CALCULATION SPECIFIED
 *  1SCF       - DO 1 SCF AND THEN STOP 
 *  T=         - A TIME OF      2.0 MINUTES REQUESTED
 *  DUMP=N     - RESTART FILE WRITTEN EVERY  7200.000 SECONDS
 *  CUTOFF=    - CUTOFF FOR NDDO AND DIPOLE INTERACTIONS =  9.00A
 *  AUX        - OUTPUT AUXILIARY INFORMATION
 *  GRADIENTS  - ALL GRADIENTS TO BE PRINTED
 *  VECTORS    - FINAL EIGENVECTORS TO BE PRINTED
 *  EIGEN      - CONVERT LMO's INTO EIGENVECTORS
 *  LARGE      - EXPANDED OUTPUT TO BE PRINTED
 *  AIGOUT     - IN ARC FILE, INCLUDE AB-INITIO GEOMETRY
 *  GRAPH      - GENERATE FILE FOR GRAPHICS
 *  LOCALIZE   - LOCALIZED ORBITALS TO BE PRINTED
 *  PI         - BONDS MATRIX, SPLIT INTO SIGMA-PI-DELL COMPONENTS, TO BE PRINTED
 *******************************************************************************
PM7 XYZ T=2M 1SCF LOCALIZE AIGOUT GRAPH GRAPHF LARGE DIPOLE PI FORCE CUTOFF=9.0 AUX LET GRAD QMMM GEO-OK EIGEN VECTORS CHARGE=0
 Test System

   ATOM   CHEMICAL          X               Y               Z
  NUMBER   SYMBOL      (ANGSTROMS)     (ANGSTROMS)     (ANGSTROMS)
 
     1       C        -10.60693700  *   0.76361000  *   0.53270900  *
     2       O        -10.92550000  *  -0.15929200  *   1.29971900  *
     3       N         -9.38688400  *   0.92657800  *   0.02435500  *
     4       H         -9.23558000  *   1.69969400  *  -0.63900200  *
     5       C         -8.27949300  *   0.11752500  *   0.48177100  *
     6       H         -8.27570200  *  -0.10446900  *   1.59237900  *
     7       C         -8.19081600  *  -1.23863300  *  -0.28000400  *
     8       H         -7.16792000  *  -1.60185800  *  -0.28902300  *
     9       H         -8.78182400  *  -2.01616400  *   0.22250300  *
    10       C         -8.73480700  *  -1.11943900  *  -1.67497100  *
    11       C         -9.89873000  *  -1.76271700  *  -2.10692100  *
    12       H        -10.49128200  *  -2.38586700  *  -1.47960800  *
    13       C        -10.40276800  *  -1.59438700  *  -3.42041200  *
    14       H        -11.29362100  *  -1.96066700  *  -3.76611600  *
    15       C         -9.62587200  *  -0.77647500  *  -4.27398400  *
    16       H         -9.94904000  *  -0.48674100  *  -5.26478700  *
    17       C         -7.93601900  *  -0.49075700  *  -2.65915600  *
    18       H         -6.87692300  *  -0.25995400  *  -2.33799100  *
    19       C         -8.34344100  *  -0.25771500  *  -3.96655400  *
    20       H         -7.69745400  *   0.15010100  *  -4.80642500  *
    21       O         -9.50483300  *   1.84849800  *  -2.81780900  *
    22       H         -9.68457400  *   1.62968900  *  -3.72194800  *
    23       H         -8.66397900  *   2.38454300  *  -2.74272100  *
    24       O         -7.20338300  *  -3.53170900  *  -4.83365800  *
    25       H         -7.64299300  *  -2.68774400  *  -4.54875200  *
    26       H         -7.84619000  *  -4.18942500  *  -5.12283400  *
    27       O        -10.20357900  *   1.83579100  *  -5.31220600  *
    28       H         -9.76678600  *   1.20237000  *  -5.94380700  *
    29       H         -9.72321600  *   2.67750700  *  -5.51535900  *
    30       O        -13.13631700  *  -3.98714900  *  -4.97992000  *
    31       H        -12.81652500  *  -4.86479800  *  -5.06381600  *
    32       H        -13.24603400  *  -3.81322800  *  -4.04024100  *
    33       O        -11.23795400  *  -2.30054700  *  -6.29307200  *
    34       H        -11.01428600  *  -3.20476000  *  -6.05474900  *
    35       H        -10.35430500  *  -2.03611500  *  -6.59867300  *
    36       O         -5.47481800  *   0.33590500  *  -7.29102000  *
    37       H         -5.95253200  *  -0.50722300  *  -7.31413000  *
    38       H         -6.03555200  *   1.02661200  *  -7.72800200  *
    39       O        -12.82949500  *  -2.27910600  *   0.86316100  *
    40       H        -12.75344500  *  -3.21170200  *   0.84913400  *
    41       H        -11.96789400  *  -1.98761200  *   1.13510200  *
    42       O        -10.42925100  *  -2.13587800  *   2.84960000  *
    43       H        -11.15663200  *  -1.97793900  *   3.61128900  *
    44       H        -10.17856900  *  -1.23424100  *   2.57707000  *
    45       O         -7.28276500  *  -1.59659700  *  -6.95999600  *
    46       H         -7.13753300  *  -2.09237100  *  -7.85350500  *
    47       H         -6.77694400  *  -2.20513300  *  -6.34442300  *
    48       O         -9.17164900  *   3.70826000  *  -1.15793100  *
    49       H         -9.19841400  *   3.95008700  *  -2.10257500  *
    50       H         -8.15858000  *   3.57041200  *  -1.05178800  *
    51       O        -13.00326700  *  -0.44822400  *  -6.89662600  *
    52       H        -12.34190500  *  -0.25245300  *  -7.56598400  *
    53       H        -12.68768500  *  -1.35862400  *  -6.60254200  *
    54       O         -8.85667600  *   0.41284500  *  -7.16074500  *
    55       H         -8.31720600  *   0.98242900  *  -7.63841200  *
    56       H         -8.29842100  *  -0.41865500  *  -6.94509100  *
    57       O        -11.15763100  *   0.42917000  *  -8.53862700  *
    58       H        -10.35517600  *   0.51964900  *  -7.89219400  *
    59       H        -10.63707100  *  -0.20454200  *  -9.16918200  *
    60       O         -8.50967500  *  -4.57891500  *  -0.21401200  *
    61       H         -8.88169100  *  -4.58259500  *  -1.17194000  *
    62       H         -7.57068400  *  -4.59239700  *  -0.44832300  *
    63       O         -7.95417100  *   4.58303200  *   1.14452700  *
    64       H         -7.44465500  *   4.80590300  *   0.40793100  *
    65       H         -7.35730900  *   4.96707400  *   1.82698400  *
    66       O         -7.20180000  *   3.02693200  *  -3.03230400  *
    67       H         -6.65630800  *   2.38121200  *  -2.43863000  *
    68       H         -6.67090300  *   3.04750200  *  -3.78988700  *
    69       O        -12.48039000  *   0.74584700  *  -4.51201500  *
    70       H        -11.57202800  *   1.03469800  *  -4.72725700  *
    71       H        -12.58990200  *   0.26881700  *  -5.32992200  *
    72       H        -11.34258200  *   1.50842900  *   0.22910900  *
    73       H         -7.36541900  *   0.68020900  *   0.29215500  *
 


          CARTESIAN COORDINATES 

    NO.       ATOM           X           Y           Z

     1         C        -10.6069      0.7636      0.5327
     2         O        -10.9255     -0.1593      1.2997
     3         N         -9.3869      0.9266      0.0244
     4         H         -9.2356      1.6997     -0.6390
     5         C         -8.2795      0.1175      0.4818
     6         H         -8.2757     -0.1045      1.5924
     7         C         -8.1908     -1.2386     -0.2800
     8         H         -7.1679     -1.6019     -0.2890
     9         H         -8.7818     -2.0162      0.2225
    10         C         -8.7348     -1.1194     -1.6750
    11         C         -9.8987     -1.7627     -2.1069
    12         H        -10.4913     -2.3859     -1.4796
    13         C        -10.4028     -1.5944     -3.4204
    14         H        -11.2936     -1.9607     -3.7661
    15         C         -9.6259     -0.7765     -4.2740
    16         H         -9.9490     -0.4867     -5.2648
    17         C         -7.9360     -0.4908     -2.6592
    18         H         -6.8769     -0.2600     -2.3380
    19         C         -8.3434     -0.2577     -3.9666
    20         H         -7.6975      0.1501     -4.8064
    21         O         -9.5048      1.8485     -2.8178
    22         H         -9.6846      1.6297     -3.7219
    23         H         -8.6640      2.3845     -2.7427
    24         O         -7.2034     -3.5317     -4.8337
    25         H         -7.6430     -2.6877     -4.5488
    26         H         -7.8462     -4.1894     -5.1228
    27         O        -10.2036      1.8358     -5.3122
    28         H         -9.7668      1.2024     -5.9438
    29         H         -9.7232      2.6775     -5.5154
    30         O        -13.1363     -3.9871     -4.9799
    31         H        -12.8165     -4.8648     -5.0638
    32         H        -13.2460     -3.8132     -4.0402
    33         O        -11.2380     -2.3005     -6.2931
    34         H        -11.0143     -3.2048     -6.0547
    35         H        -10.3543     -2.0361     -6.5987
    36         O         -5.4748      0.3359     -7.2910
    37         H         -5.9525     -0.5072     -7.3141
    38         H         -6.0356      1.0266     -7.7280
    39         O        -12.8295     -2.2791      0.8632
    40         H        -12.7534     -3.2117      0.8491
    41         H        -11.9679     -1.9876      1.1351
    42         O        -10.4293     -2.1359      2.8496
    43         H        -11.1566     -1.9779      3.6113
    44         H        -10.1786     -1.2342      2.5771
    45         O         -7.2828     -1.5966     -6.9600
    46         H         -7.1375     -2.0924     -7.8535
    47         H         -6.7769     -2.2051     -6.3444
    48         O         -9.1716      3.7083     -1.1579
    49         H         -9.1984      3.9501     -2.1026
    50         H         -8.1586      3.5704     -1.0518
    51         O        -13.0033     -0.4482     -6.8966
    52         H        -12.3419     -0.2525     -7.5660
    53         H        -12.6877     -1.3586     -6.6025
    54         O         -8.8567      0.4128     -7.1607
    55         H         -8.3172      0.9824     -7.6384
    56         H         -8.2984     -0.4187     -6.9451
    57         O        -11.1576      0.4292     -8.5386
    58         H        -10.3552      0.5196     -7.8922
    59         H        -10.6371     -0.2045     -9.1692
    60         O         -8.5097     -4.5789     -0.2140
    61         H         -8.8817     -4.5826     -1.1719
    62         H         -7.5707     -4.5924     -0.4483
    63         O         -7.9542      4.5830      1.1445
    64         H         -7.4447      4.8059      0.4079
    65         H         -7.3573      4.9671      1.8270
    66         O         -7.2018      3.0269     -3.0323
    67         H         -6.6563      2.3812     -2.4386
    68         H         -6.6709      3.0475     -3.7899
    69         O        -12.4804      0.7458     -4.5120
    70         H        -11.5720      1.0347     -4.7273
    71         H        -12.5899      0.2688     -5.3299
    72         H        -11.3426      1.5084      0.2291
    73         H         -7.3654      0.6802      0.2922

 General Reference for PM7:
 "Optimization of Parameters for Semiempirical Methods VI: More Modifications to the 
 NDDO Approximations and Re-optimization of Parameters", J. J. P. Stewart, J. Mol. Mod., 1:32, 19 (2013)
 http://www.springerlink.com/openurl.asp?genre=article&id=doi:10.1007/s00894-012-1667-x

           Empirical Formula: C9 H45 N O18  =    73 atoms



      MOLECULAR POINT GROUP   :   C1  


      RHF CALCULATION, NO. OF DOUBLY OCCUPIED LEVELS = 97


 -------------------------------------------------------------------------------
 PM7 XYZ T=2M 1SCF LOCALIZE AIGOUT GRAPH GRAPHF LARGE DIPOLE PI FORCE CUTOFF=9.0 AUX LET GRAD QMMM GEO-OK EIGEN VECTORS CHARGE=0
 Test System



     1SCF WAS SPECIFIED, SO BFGS WAS NOT USED                 
     SCF FIELD WAS ACHIEVED                                   


                              PM7 CALCULATION
                                                       MOPAC2016 (Version: 20.070L)
                                                       Thu Apr 23 14:33:14 2020
                                                       No. of days remaining = 322




          FINAL HEAT OF FORMATION =      -1342.26152 KCAL/MOL =   -5616.02220 KJ/MOL


          TOTAL ENERGY            =      -7232.07679 EV
          ELECTRONIC ENERGY       =     -60844.35361 EV  POINT GROUP:     C1  
          CORE-CORE REPULSION     =      53612.27682 EV
          COSMO AREA              =        485.16 SQUARE ANGSTROMS
          COSMO VOLUME            =        650.82 CUBIC ANGSTROMS

          GRADIENT NORM           =        284.76639 = 33.32939 PER ATOM
          IONIZATION POTENTIAL    =          8.561873 EV
          HOMO LUMO ENERGIES (EV) =         -8.562  0.958
          NO. OF FILLED LEVELS    =         97
          MOLECULAR WEIGHT        =        455.4504

          MOLECULAR DIMENSIONS (Angstroms)

            Atom       Atom       Distance
            H    65    H    31    13.18908
            H    43    H    38    12.70368
            O    51    H    62     7.99653


          SCF CALCULATIONS        =          1
 
          WALL-CLOCK TIME         =          0.207 SECONDS
          COMPUTATION TIME        =          0.206 SECONDS

          LARGEST ATOMIC GRADIENTS

          Atom     Label                     Cartesian Gradients           Cartesian Coordinates       |Gradient|
                                           X          Y          Z        X          Y          Z

            13       C                 -75.682    -49.494     -5.845  -10.40277   -1.59439   -3.42041     90.617
            57       O                 -72.884     29.678     10.085  -11.15763    0.42917   -8.53863     79.338
            66       O                 -31.209     24.265    -49.967   -7.20180    3.02693   -3.03230     63.714
            45       O                 -31.136     43.623     28.488   -7.28277   -1.59660   -6.96000     60.696
            43       H                 -38.410      7.107     45.335  -11.15663   -1.97794    3.61129     59.843
            42       O                  31.817    -11.656    -48.217  -10.42925   -2.13588    2.84960     58.932
            27       O                 -46.265     -2.280     33.998  -10.20358    1.83579   -5.31221     57.459
            48       O                 -57.207     -1.653      3.762   -9.17165    3.70826   -1.15793     57.354
            60       O                  -0.631      0.979     53.759   -8.50967   -4.57892   -0.21401     53.771
            59       H                  34.969    -22.695    -13.929  -10.63707   -0.20454   -9.16918     43.953



       FINAL  POINT  AND  DERIVATIVES

   PARAMETER     ATOM    TYPE            VALUE        GRADIENT
      1          1  C    CARTESIAN X   -10.606937     36.423655  KCAL/ANGSTROM
      2          1  C    CARTESIAN Y     0.763610     15.117296  KCAL/ANGSTROM
      3          1  C    CARTESIAN Z     0.532709    -11.341519  KCAL/ANGSTROM
      4          2  O    CARTESIAN X   -10.925500    -14.074142  KCAL/ANGSTROM
      5          2  O    CARTESIAN Y    -0.159292    -19.214811  KCAL/ANGSTROM
      6          2  O    CARTESIAN Z     1.299719      5.606470  KCAL/ANGSTROM
      7          3  N    CARTESIAN X    -9.386884    -13.288564  KCAL/ANGSTROM
      8          3  N    CARTESIAN Y     0.926578    -12.215110  KCAL/ANGSTROM
      9          3  N    CARTESIAN Z     0.024355     -5.659798  KCAL/ANGSTROM
     10          4  H    CARTESIAN X    -9.235580      5.371172  KCAL/ANGSTROM
     11          4  H    CARTESIAN Y     1.699694      3.000007  KCAL/ANGSTROM
     12          4  H    CARTESIAN Z    -0.639002      2.174616  KCAL/ANGSTROM
     13          5  C    CARTESIAN X    -8.279493    -16.907846  KCAL/ANGSTROM
     14          5  C    CARTESIAN Y     0.117525     27.090621  KCAL/ANGSTROM
     15          5  C    CARTESIAN Z     0.481771      0.874238  KCAL/ANGSTROM
     16          6  H    CARTESIAN X    -8.275702     12.322901  KCAL/ANGSTROM
     17          6  H    CARTESIAN Y    -0.104469     -4.858906  KCAL/ANGSTROM
     18          6  H    CARTESIAN Z     1.592379      9.232488  KCAL/ANGSTROM
     19          7  C    CARTESIAN X    -8.190816     20.335931  KCAL/ANGSTROM
     20          7  C    CARTESIAN Y    -1.238633     -8.048395  KCAL/ANGSTROM
     21          7  C    CARTESIAN Z    -0.280004     11.272230  KCAL/ANGSTROM
     22          8  H    CARTESIAN X    -7.167920    -11.395279  KCAL/ANGSTROM
     23          8  H    CARTESIAN Y    -1.601858      4.066364  KCAL/ANGSTROM
     24          8  H    CARTESIAN Z    -0.289023     -1.859159  KCAL/ANGSTROM
     25          9  H    CARTESIAN X    -8.781824      5.428725  KCAL/ANGSTROM
     26          9  H    CARTESIAN Y    -2.016164      5.715581  KCAL/ANGSTROM
     27          9  H    CARTESIAN Z     0.222503    -13.626103  KCAL/ANGSTROM
     28         10  C    CARTESIAN X    -8.734807     -6.369854  KCAL/ANGSTROM
     29         10  C    CARTESIAN Y    -1.119439      8.846858  KCAL/ANGSTROM
     30         10  C    CARTESIAN Z    -1.674971     31.311247  KCAL/ANGSTROM
     31         11  C    CARTESIAN X    -9.898730      5.348729  KCAL/ANGSTROM
     32         11  C    CARTESIAN Y    -1.762717     -9.105627  KCAL/ANGSTROM
     33         11  C    CARTESIAN Z    -2.106921     18.703197  KCAL/ANGSTROM
     34         12  H    CARTESIAN X   -10.491282      5.181566  KCAL/ANGSTROM
     35         12  H    CARTESIAN Y    -2.385867      4.691997  KCAL/ANGSTROM
     36         12  H    CARTESIAN Z    -1.479608    -17.996582  KCAL/ANGSTROM
     37         13  C    CARTESIAN X   -10.402768    -75.681599  KCAL/ANGSTROM
     38         13  C    CARTESIAN Y    -1.594387    -49.493819  KCAL/ANGSTROM
     39         13  C    CARTESIAN Z    -3.420412     -5.844752  KCAL/ANGSTROM
     40         14  H    CARTESIAN X   -11.293621     33.972826  KCAL/ANGSTROM
     41         14  H    CARTESIAN Y    -1.960667     15.614832  KCAL/ANGSTROM
     42         14  H    CARTESIAN Z    -3.766116      5.978536  KCAL/ANGSTROM
     43         15  C    CARTESIAN X    -9.625872    -10.973422  KCAL/ANGSTROM
     44         15  C    CARTESIAN Y    -0.776475      5.236891  KCAL/ANGSTROM
     45         15  C    CARTESIAN Z    -4.273984      4.476071  KCAL/ANGSTROM
     46         16  H    CARTESIAN X    -9.949040     17.718590  KCAL/ANGSTROM
     47         16  H    CARTESIAN Y    -0.486741      8.986025  KCAL/ANGSTROM
     48         16  H    CARTESIAN Z    -5.264787      2.967227  KCAL/ANGSTROM
     49         17  C    CARTESIAN X    -7.936019    -33.148458  KCAL/ANGSTROM
     50         17  C    CARTESIAN Y    -0.490757     -7.098700  KCAL/ANGSTROM
     51         17  C    CARTESIAN Z    -2.659156     -8.278361  KCAL/ANGSTROM
     52         18  H    CARTESIAN X    -6.876923     21.746114  KCAL/ANGSTROM
     53         18  H    CARTESIAN Y    -0.259954     -3.249878  KCAL/ANGSTROM
     54         18  H    CARTESIAN Z    -2.337991      8.658946  KCAL/ANGSTROM
     55         19  C    CARTESIAN X    -8.343441      6.302588  KCAL/ANGSTROM
     56         19  C    CARTESIAN Y    -0.257715     31.349847  KCAL/ANGSTROM
     57         19  C    CARTESIAN Z    -3.966554     -7.396923  KCAL/ANGSTROM
     58         20  H    CARTESIAN X    -7.697454     16.900318  KCAL/ANGSTROM
     59         20  H    CARTESIAN Y     0.150101      3.808952  KCAL/ANGSTROM
     60         20  H    CARTESIAN Z    -4.806425    -29.315597  KCAL/ANGSTROM
     61         21  O    CARTESIAN X    -9.504833    -27.288020  KCAL/ANGSTROM
     62         21  O    CARTESIAN Y     1.848498    -11.514617  KCAL/ANGSTROM
     63         21  O    CARTESIAN Z    -2.817809    -15.308544  KCAL/ANGSTROM
     64         22  H    CARTESIAN X    -9.684574     11.971211  KCAL/ANGSTROM
     65         22  H    CARTESIAN Y     1.629689     -2.381913  KCAL/ANGSTROM
     66         22  H    CARTESIAN Z    -3.721948     -1.452285  KCAL/ANGSTROM
     67         23  H    CARTESIAN X    -8.663979     24.290973  KCAL/ANGSTROM
     68         23  H    CARTESIAN Y     2.384543     18.677213  KCAL/ANGSTROM
     69         23  H    CARTESIAN Z    -2.742721     13.222515  KCAL/ANGSTROM
     70         24  O    CARTESIAN X    -7.203383      4.066022  KCAL/ANGSTROM
     71         24  O    CARTESIAN Y    -3.531709    -19.940112  KCAL/ANGSTROM
     72         24  O    CARTESIAN Z    -4.833658      6.287049  KCAL/ANGSTROM
     73         25  H    CARTESIAN X    -7.642993     -0.943328  KCAL/ANGSTROM
     74         25  H    CARTESIAN Y    -2.687744     22.550549  KCAL/ANGSTROM
     75         25  H    CARTESIAN Z    -4.548752      0.483192  KCAL/ANGSTROM
     76         26  H    CARTESIAN X    -7.846190      0.186996  KCAL/ANGSTROM
     77         26  H    CARTESIAN Y    -4.189425     -8.251424  KCAL/ANGSTROM
     78         26  H    CARTESIAN Z    -5.122834     -7.155740  KCAL/ANGSTROM
     79         27  O    CARTESIAN X   -10.203579    -46.265072  KCAL/ANGSTROM
     80         27  O    CARTESIAN Y     1.835791     -2.280289  KCAL/ANGSTROM
     81         27  O    CARTESIAN Z    -5.312206     33.997791  KCAL/ANGSTROM
     82         28  H    CARTESIAN X    -9.766786     14.037098  KCAL/ANGSTROM
     83         28  H    CARTESIAN Y     1.202370     -8.163709  KCAL/ANGSTROM
     84         28  H    CARTESIAN Z    -5.943807    -10.522835  KCAL/ANGSTROM
     85         29  H    CARTESIAN X    -9.723216     20.090715  KCAL/ANGSTROM
     86         29  H    CARTESIAN Y     2.677507      5.833252  KCAL/ANGSTROM
     87         29  H    CARTESIAN Z    -5.515359     -7.402224  KCAL/ANGSTROM
     88         30  O    CARTESIAN X   -13.136317     -7.235224  KCAL/ANGSTROM
     89         30  O    CARTESIAN Y    -3.987149      2.710786  KCAL/ANGSTROM
     90         30  O    CARTESIAN Z    -4.979920     -3.014367  KCAL/ANGSTROM
     91         31  H    CARTESIAN X   -12.816525      1.706131  KCAL/ANGSTROM
     92         31  H    CARTESIAN Y    -4.864798      5.703215  KCAL/ANGSTROM
     93         31  H    CARTESIAN Z    -5.063816      2.264625  KCAL/ANGSTROM
     94         32  H    CARTESIAN X   -13.246034      3.824287  KCAL/ANGSTROM
     95         32  H    CARTESIAN Y    -3.813228     -6.753509  KCAL/ANGSTROM
     96         32  H    CARTESIAN Z    -4.040241      0.591735  KCAL/ANGSTROM
     97         33  O    CARTESIAN X   -11.237954    -35.803874  KCAL/ANGSTROM
     98         33  O    CARTESIAN Y    -2.300547     13.977135  KCAL/ANGSTROM
     99         33  O    CARTESIAN Z    -6.293072      6.947750  KCAL/ANGSTROM
    100         34  H    CARTESIAN X   -11.014286     23.181065  KCAL/ANGSTROM
    101         34  H    CARTESIAN Y    -3.204760      4.843041  KCAL/ANGSTROM
    102         34  H    CARTESIAN Z    -6.054749     -7.519271  KCAL/ANGSTROM
    103         35  H    CARTESIAN X   -10.354305     10.021917  KCAL/ANGSTROM
    104         35  H    CARTESIAN Y    -2.036115    -15.116823  KCAL/ANGSTROM
    105         35  H    CARTESIAN Z    -6.598673      1.339917  KCAL/ANGSTROM
    106         36  O    CARTESIAN X    -5.474818     14.663084  KCAL/ANGSTROM
    107         36  O    CARTESIAN Y     0.335905    -12.047844  KCAL/ANGSTROM
    108         36  O    CARTESIAN Z    -7.291020     14.747377  KCAL/ANGSTROM
    109         37  H    CARTESIAN X    -5.952532     -0.560806  KCAL/ANGSTROM
    110         37  H    CARTESIAN Y    -0.507223    -12.851242  KCAL/ANGSTROM
    111         37  H    CARTESIAN Z    -7.314130     -7.695447  KCAL/ANGSTROM
    112         38  H    CARTESIAN X    -6.035552    -16.809614  KCAL/ANGSTROM
    113         38  H    CARTESIAN Y     1.026612     16.528708  KCAL/ANGSTROM
    114         38  H    CARTESIAN Z    -7.728002    -10.328204  KCAL/ANGSTROM
    115         39  O    CARTESIAN X   -12.829495      1.675897  KCAL/ANGSTROM
    116         39  O    CARTESIAN Y    -2.279106      7.049110  KCAL/ANGSTROM
    117         39  O    CARTESIAN Z     0.863161      1.235482  KCAL/ANGSTROM
    118         40  H    CARTESIAN X   -12.753445      7.018692  KCAL/ANGSTROM
    119         40  H    CARTESIAN Y    -3.211702     13.084669  KCAL/ANGSTROM
    120         40  H    CARTESIAN Z     0.849134      1.871029  KCAL/ANGSTROM
    121         41  H    CARTESIAN X   -11.967894     -8.214613  KCAL/ANGSTROM
    122         41  H    CARTESIAN Y    -1.987612    -20.465154  KCAL/ANGSTROM
    123         41  H    CARTESIAN Z     1.135102     -4.932662  KCAL/ANGSTROM
    124         42  O    CARTESIAN X   -10.429251     31.816692  KCAL/ANGSTROM
    125         42  O    CARTESIAN Y    -2.135878    -11.656274  KCAL/ANGSTROM
    126         42  O    CARTESIAN Z     2.849600    -48.216506  KCAL/ANGSTROM
    127         43  H    CARTESIAN X   -11.156632    -38.410482  KCAL/ANGSTROM
    128         43  H    CARTESIAN Y    -1.977939      7.106654  KCAL/ANGSTROM
    129         43  H    CARTESIAN Z     3.611289     45.335356  KCAL/ANGSTROM
    130         44  H    CARTESIAN X   -10.178569      7.899625  KCAL/ANGSTROM
    131         44  H    CARTESIAN Y    -1.234241     10.694786  KCAL/ANGSTROM
    132         44  H    CARTESIAN Z     2.577070      4.207306  KCAL/ANGSTROM
    133         45  O    CARTESIAN X    -7.282765    -31.136188  KCAL/ANGSTROM
    134         45  O    CARTESIAN Y    -1.596597     43.622774  KCAL/ANGSTROM
    135         45  O    CARTESIAN Z    -6.959996     28.487665  KCAL/ANGSTROM
    136         46  H    CARTESIAN X    -7.137533     10.715284  KCAL/ANGSTROM
    137         46  H    CARTESIAN Y    -2.092371    -13.898533  KCAL/ANGSTROM
    138         46  H    CARTESIAN Z    -7.853505    -22.112451  KCAL/ANGSTROM
    139         47  H    CARTESIAN X    -6.776944     15.065677  KCAL/ANGSTROM
    140         47  H    CARTESIAN Y    -2.205133    -11.592622  KCAL/ANGSTROM
    141         47  H    CARTESIAN Z    -6.344423     -3.582989  KCAL/ANGSTROM
    142         48  O    CARTESIAN X    -9.171649    -57.206658  KCAL/ANGSTROM
    143         48  O    CARTESIAN Y     3.708260     -1.653055  KCAL/ANGSTROM
    144         48  O    CARTESIAN Z    -1.157931      3.762458  KCAL/ANGSTROM
    145         49  H    CARTESIAN X    -9.198414     15.341442  KCAL/ANGSTROM
    146         49  H    CARTESIAN Y     3.950087      2.097051  KCAL/ANGSTROM
    147         49  H    CARTESIAN Z    -2.102575     -5.298206  KCAL/ANGSTROM
    148         50  H    CARTESIAN X    -8.158580     42.175450  KCAL/ANGSTROM
    149         50  H    CARTESIAN Y     3.570412     -7.061691  KCAL/ANGSTROM
    150         50  H    CARTESIAN Z    -1.051788     -3.564794  KCAL/ANGSTROM
    151         51  O    CARTESIAN X   -13.003267     -9.185480  KCAL/ANGSTROM
    152         51  O    CARTESIAN Y    -0.448224     29.622708  KCAL/ANGSTROM
    153         51  O    CARTESIAN Z    -6.896626    -16.816297  KCAL/ANGSTROM
    154         52  H    CARTESIAN X   -12.341905      1.177164  KCAL/ANGSTROM
    155         52  H    CARTESIAN Y    -0.252453    -17.678432  KCAL/ANGSTROM
    156         52  H    CARTESIAN Z    -7.565984      6.282570  KCAL/ANGSTROM
    157         53  H    CARTESIAN X   -12.687685     15.084598  KCAL/ANGSTROM
    158         53  H    CARTESIAN Y    -1.358624    -18.495348  KCAL/ANGSTROM
    159         53  H    CARTESIAN Z    -6.602542     -0.671853  KCAL/ANGSTROM
    160         54  O    CARTESIAN X    -8.856676      2.481111  KCAL/ANGSTROM
    161         54  O    CARTESIAN Y     0.412845     22.687098  KCAL/ANGSTROM
    162         54  O    CARTESIAN Z    -7.160745    -13.996811  KCAL/ANGSTROM
    163         55  H    CARTESIAN X    -8.317206    -10.925019  KCAL/ANGSTROM
    164         55  H    CARTESIAN Y     0.982429    -16.294657  KCAL/ANGSTROM
    165         55  H    CARTESIAN Z    -7.638412     12.011068  KCAL/ANGSTROM
    166         56  H    CARTESIAN X    -8.298421     15.118971  KCAL/ANGSTROM
    167         56  H    CARTESIAN Y    -0.418655    -16.888621  KCAL/ANGSTROM
    168         56  H    CARTESIAN Z    -6.945091     -0.009794  KCAL/ANGSTROM
    169         57  O    CARTESIAN X   -11.157631    -72.883730  KCAL/ANGSTROM
    170         57  O    CARTESIAN Y     0.429170     29.677875  KCAL/ANGSTROM
    171         57  O    CARTESIAN Z    -8.538627     10.084921  KCAL/ANGSTROM
    172         58  H    CARTESIAN X   -10.355176     32.280735  KCAL/ANGSTROM
    173         58  H    CARTESIAN Y     0.519649     -4.072008  KCAL/ANGSTROM
    174         58  H    CARTESIAN Z    -7.892194     10.078074  KCAL/ANGSTROM
    175         59  H    CARTESIAN X   -10.637071     34.968910  KCAL/ANGSTROM
    176         59  H    CARTESIAN Y    -0.204542    -22.694663  KCAL/ANGSTROM
    177         59  H    CARTESIAN Z    -9.169182    -13.928946  KCAL/ANGSTROM
    178         60  O    CARTESIAN X    -8.509675     -0.630718  KCAL/ANGSTROM
    179         60  O    CARTESIAN Y    -4.578915      0.979357  KCAL/ANGSTROM
    180         60  O    CARTESIAN Z    -0.214012     53.758594  KCAL/ANGSTROM
    181         61  H    CARTESIAN X    -8.881691     -1.270455  KCAL/ANGSTROM
    182         61  H    CARTESIAN Y    -4.582595     -1.712981  KCAL/ANGSTROM
    183         61  H    CARTESIAN Z    -1.171940    -38.671004  KCAL/ANGSTROM
    184         62  H    CARTESIAN X    -7.570684      1.286794  KCAL/ANGSTROM
    185         62  H    CARTESIAN Y    -4.592397     -0.002215  KCAL/ANGSTROM
    186         62  H    CARTESIAN Z    -0.448323    -13.945861  KCAL/ANGSTROM
    187         63  O    CARTESIAN X    -7.954171    -24.044520  KCAL/ANGSTROM
    188         63  O    CARTESIAN Y     4.583032     -7.824373  KCAL/ANGSTROM
    189         63  O    CARTESIAN Z     1.144527    -29.023434  KCAL/ANGSTROM
    190         64  H    CARTESIAN X    -7.444655      1.766814  KCAL/ANGSTROM
    191         64  H    CARTESIAN Y     4.805903     -2.066900  KCAL/ANGSTROM
    192         64  H    CARTESIAN Z     0.407931     33.701040  KCAL/ANGSTROM
    193         65  H    CARTESIAN X    -7.357309     19.296539  KCAL/ANGSTROM
    194         65  H    CARTESIAN Y     4.967074      8.153418  KCAL/ANGSTROM
    195         65  H    CARTESIAN Z     1.826984     -7.964775  KCAL/ANGSTROM
    196         66  O    CARTESIAN X    -7.201800    -31.209029  KCAL/ANGSTROM
    197         66  O    CARTESIAN Y     3.026932     24.265366  KCAL/ANGSTROM
    198         66  O    CARTESIAN Z    -3.032304    -49.967133  KCAL/ANGSTROM
    199         67  H    CARTESIAN X    -6.656308     24.148202  KCAL/ANGSTROM
    200         67  H    CARTESIAN Y     2.381212    -22.686888  KCAL/ANGSTROM
    201         67  H    CARTESIAN Z    -2.438630     16.699190  KCAL/ANGSTROM
    202         68  H    CARTESIAN X    -6.670903     -6.007229  KCAL/ANGSTROM
    203         68  H    CARTESIAN Y     3.047502     -5.877455  KCAL/ANGSTROM
    204         68  H    CARTESIAN Z    -3.789887     30.083162  KCAL/ANGSTROM
    205         69  O    CARTESIAN X   -12.480390    -14.382931  KCAL/ANGSTROM
    206         69  O    CARTESIAN Y     0.745847      9.638436  KCAL/ANGSTROM
    207         69  O    CARTESIAN Z    -4.512015     17.882736  KCAL/ANGSTROM
    208         70  H    CARTESIAN X   -11.572028      7.719158  KCAL/ANGSTROM
    209         70  H    CARTESIAN Y     1.034698    -14.571997  KCAL/ANGSTROM
    210         70  H    CARTESIAN Z    -4.727257    -19.902693  KCAL/ANGSTROM
    211         71  H    CARTESIAN X   -12.589902     26.272660  KCAL/ANGSTROM
    212         71  H    CARTESIAN Y     0.268817      7.541862  KCAL/ANGSTROM
    213         71  H    CARTESIAN Z    -5.329922      5.711213  KCAL/ANGSTROM
    214         72  H    CARTESIAN X   -11.342582      9.003378  KCAL/ANGSTROM
    215         72  H    CARTESIAN Y     1.508429     -0.115877  KCAL/ANGSTROM
    216         72  H    CARTESIAN Z     0.229109      0.638302  KCAL/ANGSTROM
    217         73  H    CARTESIAN X    -7.365419    -15.148545  KCAL/ANGSTROM
    218         73  H    CARTESIAN Y     0.680209    -10.670495  KCAL/ANGSTROM
    219         73  H    CARTESIAN Z     0.292155      1.362912  KCAL/ANGSTROM




   ATOM   CHEMICAL          X               Y               Z
  NUMBER   SYMBOL      (ANGSTROMS)     (ANGSTROMS)     (ANGSTROMS)
 
     1       C        -10.60693700  *   0.76361000  *   0.53270900  *
     2       O        -10.92550000  *  -0.15929200  *   1.29971900  *
     3       N         -9.38688400  *   0.92657800  *   0.02435500  *
     4       H         -9.23558000  *   1.69969400  *  -0.63900200  *
     5       C         -8.27949300  *   0.11752500  *   0.48177100  *
     6       H         -8.27570200  *  -0.10446900  *   1.59237900  *
     7       C         -8.19081600  *  -1.23863300  *  -0.28000400  *
     8       H         -7.16792000  *  -1.60185800  *  -0.28902300  *
     9       H         -8.78182400  *  -2.01616400  *   0.22250300  *
    10       C         -8.73480700  *  -1.11943900  *  -1.67497100  *
    11       C         -9.89873000  *  -1.76271700  *  -2.10692100  *
    12       H        -10.49128200  *  -2.38586700  *  -1.47960800  *
    13       C        -10.40276800  *  -1.59438700  *  -3.42041200  *
    14       H        -11.29362100  *  -1.96066700  *  -3.76611600  *
    15       C         -9.62587200  *  -0.77647500  *  -4.27398400  *
    16       H         -9.94904000  *  -0.48674100  *  -5.26478700  *
    17       C         -7.93601900  *  -0.49075700  *  -2.65915600  *
    18       H         -6.87692300  *  -0.25995400  *  -2.33799100  *
    19       C         -8.34344100  *  -0.25771500  *  -3.96655400  *
    20       H         -7.69745400  *   0.15010100  *  -4.80642500  *
    21       O         -9.50483300  *   1.84849800  *  -2.81780900  *
    22       H         -9.68457400  *   1.62968900  *  -3.72194800  *
    23       H         -8.66397900  *   2.38454300  *  -2.74272100  *
    24       O         -7.20338300  *  -3.53170900  *  -4.83365800  *
    25       H         -7.64299300  *  -2.68774400  *  -4.54875200  *
    26       H         -7.84619000  *  -4.18942500  *  -5.12283400  *
    27       O        -10.20357900  *   1.83579100  *  -5.31220600  *
    28       H         -9.76678600  *   1.20237000  *  -5.94380700  *
    29       H         -9.72321600  *   2.67750700  *  -5.51535900  *
    30       O        -13.13631700  *  -3.98714900  *  -4.97992000  *
    31       H        -12.81652500  *  -4.86479800  *  -5.06381600  *
    32       H        -13.24603400  *  -3.81322800  *  -4.04024100  *
    33       O        -11.23795400  *  -2.30054700  *  -6.29307200  *
    34       H        -11.01428600  *  -3.20476000  *  -6.05474900  *
    35       H        -10.35430500  *  -2.03611500  *  -6.59867300  *
    36       O         -5.47481800  *   0.33590500  *  -7.29102000  *
    37       H         -5.95253200  *  -0.50722300  *  -7.31413000  *
    38       H         -6.03555200  *   1.02661200  *  -7.72800200  *
    39       O        -12.82949500  *  -2.27910600  *   0.86316100  *
    40       H        -12.75344500  *  -3.21170200  *   0.84913400  *
    41       H        -11.96789400  *  -1.98761200  *   1.13510200  *
    42       O        -10.42925100  *  -2.13587800  *   2.84960000  *
    43       H        -11.15663200  *  -1.97793900  *   3.61128900  *
    44       H        -10.17856900  *  -1.23424100  *   2.57707000  *
    45       O         -7.28276500  *  -1.59659700  *  -6.95999600  *
    46       H         -7.13753300  *  -2.09237100  *  -7.85350500  *
    47       H         -6.77694400  *  -2.20513300  *  -6.34442300  *
    48       O         -9.17164900  *   3.70826000  *  -1.15793100  *
    49       H         -9.19841400  *   3.95008700  *  -2.10257500  *
    50       H         -8.15858000  *   3.57041200  *  -1.05178800  *
    51       O        -13.00326700  *  -0.44822400  *  -6.89662600  *
    52       H        -12.34190500  *  -0.25245300  *  -7.56598400  *
    53       H        -12.68768500  *  -1.35862400  *  -6.60254200  *
    54       O         -8.85667600  *   0.41284500  *  -7.16074500  *
    55       H         -8.31720600  *   0.98242900  *  -7.63841200  *
    56       H         -8.29842100  *  -0.41865500  *  -6.94509100  *
    57       O        -11.15763100  *   0.42917000  *  -8.53862700  *
    58       H        -10.35517600  *   0.51964900  *  -7.89219400  *
    59       H        -10.63707100  *  -0.20454200  *  -9.16918200  *
    60       O         -8.50967500  *  -4.57891500  *  -0.21401200  *
    61       H         -8.88169100  *  -4.58259500  *  -1.17194000  *
    62       H         -7.57068400  *  -4.59239700  *  -0.44832300  *
    63       O         -7.95417100  *   4.58303200  *   1.14452700  *
    64       H         -7.44465500  *   4.80590300  *   0.40793100  *
    65       H         -7.35730900  *   4.96707400  *   1.82698400  *
    66       O         -7.20180000  *   3.02693200  *  -3.03230400  *
    67       H         -6.65630800  *   2.38121200  *  -2.43863000  *
    68       H         -6.67090300  *   3.04750200  *  -3.78988700  *
    69       O        -12.48039000  *   0.74584700  *  -4.51201500  *
    70       H        -11.57202800  *   1.03469800  *  -4.72725700  *
    71       H        -12.58990200  *   0.26881700  *  -5.32992200  *
    72       H        -11.34258200  *   1.50842900  *   0.22910900  *
    73       H         -7.36541900  *   0.68020900  *   0.29215500  *

                             CARTESIAN COORDINATES

   1    C      -10.606937000     0.763610000     0.532709000
   2    O      -10.925500000    -0.159292000     1.299719000
   3    N       -9.386884000     0.926578000     0.024355000
   4    H       -9.235580000     1.699694000    -0.639002000
   5    C       -8.279493000     0.117525000     0.481771000
   6    H       -8.275702000    -0.104469000     1.592379000
   7    C       -8.190816000    -1.238633000    -0.280004000
   8    H       -7.167920000    -1.601858000    -0.289023000
   9    H       -8.781824000    -2.016164000     0.222503000
  10    C       -8.734807000    -1.119439000    -1.674971000
  11    C       -9.898730000    -1.762717000    -2.106921000
  12    H      -10.491282000    -2.385867000    -1.479608000
  13    C      -10.402768000    -1.594387000    -3.420412000
  14    H      -11.293621000    -1.960667000    -3.766116000
  15    C       -9.625872000    -0.776475000    -4.273984000
  16    H       -9.949040000    -0.486741000    -5.264787000
  17    C       -7.936019000    -0.490757000    -2.659156000
  18    H       -6.876923000    -0.259954000    -2.337991000
  19    C       -8.343441000    -0.257715000    -3.966554000
  20    H       -7.697454000     0.150101000    -4.806425000
  21    O       -9.504833000     1.848498000    -2.817809000
  22    H       -9.684574000     1.629689000    -3.721948000
  23    H       -8.663979000     2.384543000    -2.742721000
  24    O       -7.203383000    -3.531709000    -4.833658000
  25    H       -7.642993000    -2.687744000    -4.548752000
  26    H       -7.846190000    -4.189425000    -5.122834000
  27    O      -10.203579000     1.835791000    -5.312206000
  28    H       -9.766786000     1.202370000    -5.943807000
  29    H       -9.723216000     2.677507000    -5.515359000
  30    O      -13.136317000    -3.987149000    -4.979920000
  31    H      -12.816525000    -4.864798000    -5.063816000
  32    H      -13.246034000    -3.813228000    -4.040241000
  33    O      -11.237954000    -2.300547000    -6.293072000
  34    H      -11.014286000    -3.204760000    -6.054749000
  35    H      -10.354305000    -2.036115000    -6.598673000
  36    O       -5.474818000     0.335905000    -7.291020000
  37    H       -5.952532000    -0.507223000    -7.314130000
  38    H       -6.035552000     1.026612000    -7.728002000
  39    O      -12.829495000    -2.279106000     0.863161000
  40    H      -12.753445000    -3.211702000     0.849134000
  41    H      -11.967894000    -1.987612000     1.135102000
  42    O      -10.429251000    -2.135878000     2.849600000
  43    H      -11.156632000    -1.977939000     3.611289000
  44    H      -10.178569000    -1.234241000     2.577070000
  45    O       -7.282765000    -1.596597000    -6.959996000
  46    H       -7.137533000    -2.092371000    -7.853505000
  47    H       -6.776944000    -2.205133000    -6.344423000
  48    O       -9.171649000     3.708260000    -1.157931000
  49    H       -9.198414000     3.950087000    -2.102575000
  50    H       -8.158580000     3.570412000    -1.051788000
  51    O      -13.003267000    -0.448224000    -6.896626000
  52    H      -12.341905000    -0.252453000    -7.565984000
  53    H      -12.687685000    -1.358624000    -6.602542000
  54    O       -8.856676000     0.412845000    -7.160745000
  55    H       -8.317206000     0.982429000    -7.638412000
  56    H       -8.298421000    -0.418655000    -6.945091000
  57    O      -11.157631000     0.429170000    -8.538627000
  58    H      -10.355176000     0.519649000    -7.892194000
  59    H      -10.637071000    -0.204542000    -9.169182000
  60    O       -8.509675000    -4.578915000    -0.214012000
  61    H       -8.881691000    -4.582595000    -1.171940000
  62    H       -7.570684000    -4.592397000    -0.448323000
  63    O       -7.954171000     4.583032000     1.144527000
  64    H       -7.444655000     4.805903000     0.407931000
  65    H       -7.357309000     4.967074000     1.826984000
  66    O       -7.201800000     3.026932000    -3.032304000
  67    H       -6.656308000     2.381212000    -2.438630000
  68    H       -6.670903000     3.047502000    -3.789887000
  69    O      -12.480390000     0.745847000    -4.512015000
  70    H      -11.572028000     1.034698000    -4.727257000
  71    H      -12.589902000     0.268817000    -5.329922000
  72    H      -11.342582000     1.508429000     0.229109000
  73    H       -7.365419000     0.680209000     0.292155000


           Empirical Formula: C9 H45 N O18  =    73 atoms



      MOLECULAR POINT GROUP   :   C1  


                EIGENVECTORS  


   Root No.      89        90        91        92        93        94        95        96

                89 A      90 A      91 A      92 A      93 A      94 A      95 A      96 A   

               -10.926   -10.648   -10.407   -10.279   -10.161    -9.882    -9.120    -8.917
  
  S   C    1   -0.0116    0.0384   -0.0308   -0.0241   -0.0027    0.0230    0.0000    0.0008
  Px  C    1   -0.0147    0.0459   -0.0245    0.0030    0.0275   -0.0953    0.0435    0.0038
  Py  C    1    0.0064    0.0301   -0.0233   -0.0294    0.0113    0.0628    0.0740    0.0056
  Pz  C    1    0.0171   -0.0134    0.0116    0.0188   -0.0174   -0.0218    0.1090    0.0068
  S   O    2   -0.0014    0.0137   -0.0081   -0.0095    0.0188    0.0052    0.0017    0.0005
  Px  O    2   -0.0745    0.1554   -0.1633   -0.1960   -0.0763    0.7350   -0.1278   -0.0116
  Py  O    2    0.0660   -0.0654    0.0868    0.1169    0.0103   -0.3159   -0.2865   -0.0207
  Pz  O    2    0.0560    0.0393   -0.0003   -0.0157    0.0182   -0.0170   -0.4222   -0.0301
  S   N    3    0.0329   -0.0333    0.0286    0.0518   -0.0029   -0.0649   -0.0144   -0.0012
  Px  N    3    0.0109    0.0030   -0.0290   -0.0614   -0.0336    0.2315    0.1403    0.0071
  Py  N    3   -0.0749   -0.0301   -0.0036    0.0651   -0.0279    0.0372    0.4596    0.0242
  Pz  N    3   -0.0107    0.0133   -0.0236   -0.0374    0.0317   -0.0973    0.5320    0.0354
  S   H    4   -0.0250   -0.0415    0.0250   -0.0100   -0.0235    0.0755    0.0064    0.0003
  S   C    5   -0.0140   -0.0029    0.0090   -0.0083    0.0005    0.0056   -0.0224    0.0015
  Px  C    5   -0.0467    0.1494   -0.1031    0.0513    0.0428   -0.1781   -0.0397   -0.0092
  Py  C    5   -0.0610    0.1504   -0.1304   -0.0328    0.0388   -0.0336   -0.1136   -0.0225
  Pz  C    5   -0.0454   -0.2169    0.1497    0.0525   -0.0476    0.0473   -0.1325   -0.0157
  S   H    6   -0.0337   -0.1923    0.1418    0.0376   -0.0453    0.0688   -0.1303   -0.0100
  S   C    7   -0.0399   -0.0211   -0.0067    0.0027    0.0003   -0.0017    0.0812    0.0007
  Px  C    7    0.2135   -0.1841    0.1650   -0.0280   -0.0481    0.1242   -0.0076    0.0030
  Py  C    7    0.0136   -0.1595    0.1650    0.0110   -0.0395    0.0494    0.2195    0.0226
  Pz  C    7    0.1893    0.2374   -0.1952   -0.0223    0.0417   -0.0500    0.1113    0.0224
  S   H    8    0.1340   -0.1028    0.0773   -0.0224   -0.0254    0.0804   -0.0206   -0.0061
  S   H    9   -0.0470    0.2532   -0.2159   -0.0026    0.0538   -0.0938   -0.0292   -0.0046
  S   C   10   -0.0436   -0.0363    0.0303    0.0124   -0.0070   -0.0006    0.0004   -0.0029
  Px  C   10   -0.2491    0.0593   -0.0440    0.0027    0.0116   -0.0244   -0.0948    0.0028
  Py  C   10   -0.0252    0.1317   -0.0877    0.0235    0.0137   -0.0293    0.1102   -0.0435
  Pz  C   10   -0.1456   -0.1940    0.1423    0.0364   -0.0292    0.0123    0.0004   -0.0170
  S   C   11    0.0226   -0.0268    0.0197   -0.0039   -0.0052    0.0134    0.0157    0.0137
  Px  C   11    0.1212   -0.0892    0.0696   -0.0349   -0.0089    0.0263   -0.0208    0.3009
  Py  C   11    0.1693   -0.0681    0.0466    0.0293   -0.0169    0.0204    0.0810   -0.3724
  Pz  C   11    0.2708    0.0803   -0.0509   -0.0033    0.0025    0.0120    0.0444   -0.1203
  S   H   12    0.0144    0.1107   -0.0744   -0.0026    0.0119   -0.0103    0.0036   -0.0174
  S   C   13    0.0004   -0.0121    0.0092    0.0017   -0.0011   -0.0015   -0.0074    0.0174
  Px  C   13   -0.2309    0.0356   -0.0203   -0.0077    0.0091   -0.0201    0.0074    0.2240
  Py  C   13    0.1176    0.0673   -0.0462    0.0237   -0.0002    0.0060   -0.0387   -0.3705
  Pz  C   13   -0.1615   -0.0920    0.0561    0.0253   -0.0107    0.0005   -0.0235   -0.1725
  S   H   14    0.1803   -0.0304    0.0208   -0.0074   -0.0048    0.0130    0.0083    0.0039
  S   C   15    0.0152   -0.0017    0.0008    0.0025   -0.0009    0.0009   -0.0003   -0.0008
  Px  C   15    0.1893   -0.0478    0.0322   -0.0062   -0.0054    0.0067    0.0655    0.0107
  Py  C   15    0.1137   -0.0657    0.0395    0.0060   -0.0094    0.0173   -0.1060    0.0295
  Pz  C   15    0.2906    0.0776   -0.0480   -0.0058    0.0050    0.0047   -0.0507    0.0211
  S   H   16   -0.2429   -0.0620    0.0379    0.0094   -0.0051   -0.0015   -0.0036   -0.0165
  S   C   17   -0.0061    0.0433   -0.0376    0.0017    0.0084   -0.0141    0.0049    0.0023
  Px  C   17    0.2413   -0.1197    0.0828   -0.0060   -0.0175    0.0298    0.0016   -0.1272
  Py  C   17    0.0717   -0.0625    0.0497    0.0004   -0.0089    0.0088    0.0295    0.4387
  Pz  C   17    0.1981    0.1730   -0.1227   -0.0141    0.0248   -0.0281    0.0144    0.1283
  S   H   18    0.2508   -0.0409    0.0256   -0.0090   -0.0051    0.0126    0.0146    0.0168
  S   C   19    0.0112    0.0001    0.0029    0.0041   -0.0019    0.0023   -0.0100    0.0210
  Px  C   19   -0.2715    0.0367   -0.0222    0.0113    0.0037   -0.0113    0.0259   -0.1986
  Py  C   19    0.0073    0.0560   -0.0353   -0.0159    0.0098   -0.0075   -0.0816    0.4680
  Pz  C   19   -0.1905   -0.1240    0.0842    0.0105   -0.0148    0.0118   -0.0265    0.1162
  S   H   20   -0.0058    0.1160   -0.0761   -0.0043    0.0140   -0.0154   -0.0048   -0.0051
  S   O   21    0.0057    0.0044   -0.0032    0.0145   -0.0004   -0.0062    0.0042   -0.0034
  Px  O   21   -0.1279   -0.0179    0.0069   -0.0151    0.0016   -0.0001    0.0140   -0.1039
  Py  O   21    0.1996    0.0379   -0.0278    0.1749   -0.0372    0.0365   -0.0257    0.1227
  Pz  O   21    0.0109    0.0063   -0.0036    0.0053    0.0043   -0.0152   -0.0082    0.0463
  S   H   22   -0.0081   -0.0053    0.0049   -0.0293    0.0039    0.0021   -0.0026   -0.0032
  S   H   23    0.0024    0.0001   -0.0003    0.0027   -0.0010    0.0023   -0.0044    0.0030
  S   O   24   -0.0007   -0.0000    0.0000   -0.0000    0.0000    0.0000   -0.0007    0.0038
  Px  O   24   -0.0101   -0.0001    0.0001   -0.0003    0.0001   -0.0004    0.0056   -0.0182
  Py  O   24    0.0073   -0.0004    0.0002   -0.0000   -0.0001    0.0003   -0.0054    0.0222
  Pz  O   24    0.0017    0.0010   -0.0006    0.0001    0.0001   -0.0001   -0.0010    0.0060
  S   H   25    0.0005   -0.0000    0.0000    0.0001   -0.0000   -0.0000    0.0014   -0.0065
  S   H   26   -0.0001   -0.0000   -0.0000    0.0000   -0.0000   -0.0000    0.0007   -0.0037
  S   O   27    0.0032    0.0031   -0.0022    0.0048   -0.0004   -0.0007    0.0024   -0.0011
  Px  O   27    0.0303    0.0109   -0.0063    0.0270   -0.0030   -0.0026    0.0099   -0.0171
  Py  O   27   -0.0332   -0.0114    0.0066   -0.0092    0.0007    0.0005   -0.0064    0.0061
  Pz  O   27   -0.0062    0.0085   -0.0058    0.0353   -0.0039   -0.0040    0.0070   -0.0089
  S   H   28    0.0082    0.0007   -0.0000   -0.0030    0.0003    0.0006   -0.0005    0.0001
  S   H   29   -0.0097   -0.0044    0.0027   -0.0016   -0.0001    0.0004   -0.0030    0.0017
  S   O   30   -0.0006    0.0003   -0.0002    0.0000    0.0000   -0.0001   -0.0001   -0.0001
  Px  O   30   -0.0073    0.0019   -0.0011    0.0003    0.0002   -0.0004   -0.0004   -0.0007
  Py  O   30   -0.0027    0.0007   -0.0004    0.0001    0.0001   -0.0002   -0.0001    0.0000
  Pz  O   30   -0.0069    0.0010   -0.0006    0.0003    0.0001   -0.0004   -0.0003   -0.0006
  S   H   31    0.0011   -0.0003    0.0002   -0.0001   -0.0000    0.0001    0.0001    0.0002
  S   H   32   -0.0005   -0.0001    0.0001   -0.0000   -0.0000    0.0000    0.0001    0.0001
  S   O   33   -0.0003    0.0011   -0.0008    0.0000    0.0001   -0.0002   -0.0005   -0.0003
  Px  O   33    0.0436    0.0077   -0.0046   -0.0000    0.0003    0.0006   -0.0048   -0.0029
  Py  O   33    0.0222    0.0043   -0.0024   -0.0004    0.0003    0.0001   -0.0005    0.0030
  Pz  O   33    0.0179    0.0073   -0.0042    0.0018    0.0003   -0.0008   -0.0039   -0.0072
  S   H   34   -0.0070   -0.0015    0.0009    0.0002   -0.0001   -0.0001    0.0003   -0.0001
  S   H   35    0.0081    0.0002   -0.0000   -0.0002   -0.0000    0.0002    0.0005    0.0006
  S   O   36   -0.0003    0.0000    0.0000   -0.0000   -0.0000    0.0000   -0.0000    0.0001
  Px  O   36   -0.0034    0.0036   -0.0022   -0.0002    0.0004   -0.0005    0.0002   -0.0013
  Py  O   36   -0.0007   -0.0003    0.0001   -0.0000    0.0000   -0.0000    0.0003   -0.0009
  Pz  O   36    0.0001   -0.0038    0.0021    0.0001   -0.0003    0.0003    0.0001    0.0000
  S   H   37    0.0002   -0.0002    0.0001    0.0000   -0.0000    0.0000    0.0001   -0.0002
  S   H   38    0.0001    0.0000   -0.0000    0.0000    0.0000   -0.0000    0.0000   -0.0001
  S   O   39   -0.0000    0.0002    0.0002    0.0005    0.0037    0.0024   -0.0044   -0.0001
  Px  O   39    0.0026   -0.0078    0.0103    0.0127    0.0572    0.0198   -0.0285   -0.0006
  Py  O   39    0.0001    0.0020   -0.0012   -0.0006   -0.0002    0.0033   -0.0055   -0.0005
  Pz  O   39    0.0013    0.0015    0.0010    0.0054    0.0256    0.0075   -0.0067   -0.0010
  S   H   40   -0.0000   -0.0004   -0.0000   -0.0003   -0.0036   -0.0034    0.0040    0.0001
  S   H   41   -0.0003    0.0004   -0.0011   -0.0022   -0.0104   -0.0033    0.0075    0.0003
  S   O   42   -0.0026    0.0038   -0.0025   -0.0073    0.0028    0.0176   -0.0034   -0.0002
  Px  O   42    0.0070   -0.0407    0.0716    0.1399    0.6941    0.1205    0.0073    0.0003
  Py  O   42    0.0143   -0.0296    0.0272    0.0463    0.0072   -0.1294    0.0478    0.0035
  Pz  O   42    0.0041   -0.0324    0.0607    0.1310    0.6578    0.1294    0.0027   -0.0001
  S   H   43   -0.0004    0.0020   -0.0026    0.0009   -0.0022   -0.0008    0.0000   -0.0001
  S   H   44    0.0035   -0.0058    0.0044    0.0069   -0.0053   -0.0177    0.0018    0.0000
  S   O   45    0.0016   -0.0017    0.0011    0.0002   -0.0003    0.0003   -0.0005    0.0023
  Px  O   45   -0.0053   -0.0020    0.0011   -0.0001   -0.0001    0.0000    0.0006   -0.0003
  Py  O   45   -0.0018   -0.0020    0.0012    0.0003   -0.0002    0.0001    0.0008   -0.0021
  Pz  O   45    0.0019   -0.0029    0.0019    0.0000   -0.0003    0.0004   -0.0011    0.0044
  S   H   46   -0.0012    0.0025   -0.0016   -0.0001    0.0003   -0.0004    0.0007   -0.0029
  S   H   47   -0.0010    0.0000   -0.0001   -0.0002    0.0001   -0.0001    0.0002   -0.0011
  S   O   48    0.0094    0.0050   -0.0030    0.0104    0.0000   -0.0057   -0.0023    0.0008
  Px  O   48   -0.0101    0.0037   -0.0081    0.0857   -0.0189    0.0181   -0.0008   -0.0015
  Py  O   48   -0.0273    0.0659   -0.1023    0.8731   -0.1975    0.2052    0.0074    0.0237
  Pz  O   48    0.0255    0.0268   -0.0326    0.2539   -0.0544    0.0504   -0.0048    0.0196
  S   H   49   -0.0104   -0.0047    0.0030   -0.0132    0.0008    0.0041    0.0035   -0.0014
  S   H   50   -0.0010   -0.0005    0.0002    0.0012   -0.0004    0.0013    0.0004    0.0009
  S   O   51   -0.0005   -0.0000   -0.0000    0.0000    0.0000   -0.0000   -0.0000    0.0001
  Px  O   51    0.0069    0.0017   -0.0010    0.0002    0.0001   -0.0001   -0.0003   -0.0001
  Py  O   51   -0.0062   -0.0016    0.0010   -0.0001   -0.0001   -0.0000    0.0010    0.0010
  Pz  O   51    0.0002    0.0007   -0.0004    0.0000    0.0001   -0.0001    0.0001    0.0003
  S   H   52    0.0003    0.0000    0.0000   -0.0000    0.0000    0.0000    0.0000   -0.0000
  S   H   53   -0.0003   -0.0001    0.0001   -0.0000   -0.0000    0.0000    0.0002    0.0002
  S   O   54    0.0103    0.0020   -0.0011    0.0004   -0.0000    0.0001   -0.0000    0.0012
  Px  O   54   -0.0004   -0.0115    0.0072    0.0000   -0.0012    0.0014   -0.0011    0.0029
  Py  O   54   -0.0057   -0.0011    0.0003    0.0015   -0.0001   -0.0004    0.0016   -0.0038
  Pz  O   54    0.0205   -0.0061    0.0037    0.0016   -0.0010    0.0011    0.0004    0.0008
  S   H   55   -0.0116   -0.0023    0.0013   -0.0000   -0.0001   -0.0002    0.0001   -0.0011
  S   H   56   -0.0005   -0.0008    0.0004   -0.0005    0.0000    0.0000    0.0003   -0.0013
  S   O   57   -0.0004    0.0001   -0.0000    0.0000   -0.0000    0.0000   -0.0000    0.0001
  Px  O   57    0.0072   -0.0020    0.0012    0.0007   -0.0004    0.0004   -0.0000    0.0008
  Py  O   57   -0.0017   -0.0004    0.0003    0.0000   -0.0000    0.0000    0.0000   -0.0000
  Pz  O   57    0.0057   -0.0007    0.0004    0.0005   -0.0002    0.0002    0.0000    0.0006
  S   H   58    0.0005    0.0003   -0.0002   -0.0001    0.0001   -0.0001    0.0000   -0.0002
  S   H   59   -0.0001   -0.0000    0.0000   -0.0000    0.0000   -0.0000   -0.0000   -0.0000
  S   O   60    0.0008   -0.0051    0.0038   -0.0002   -0.0009    0.0018    0.0004    0.0004
  Px  O   60   -0.0034    0.0106    0.0083    0.0008   -0.0003   -0.0009    0.0024    0.0015
  Py  O   60   -0.0193    0.6217    0.7760    0.0189   -0.0541    0.0454    0.0221   -0.0041
  Pz  O   60   -0.0008   -0.0010   -0.0115   -0.0022    0.0014   -0.0007   -0.0056    0.0092
  S   H   61    0.0002    0.0011   -0.0009    0.0002    0.0003   -0.0006   -0.0001   -0.0003
  S   H   62   -0.0011    0.0032   -0.0026    0.0002    0.0006   -0.0012   -0.0001    0.0002
  S   O   63    0.0000   -0.0003    0.0005   -0.0043    0.0010   -0.0013   -0.0002   -0.0003
  Px  O   63    0.0018   -0.0011    0.0010   -0.0018    0.0004   -0.0006   -0.0001   -0.0002
  Py  O   63   -0.0023    0.0001    0.0007   -0.0143    0.0030   -0.0022    0.0001   -0.0002
  Pz  O   63   -0.0002    0.0020   -0.0029    0.0238   -0.0053    0.0053    0.0002    0.0009
  S   H   64    0.0000   -0.0001    0.0001   -0.0007    0.0001    0.0001    0.0001    0.0001
  S   H   65   -0.0000    0.0009   -0.0013    0.0105   -0.0024    0.0026    0.0002    0.0005
  S   O   66    0.0013    0.0009   -0.0006    0.0032   -0.0003   -0.0007    0.0009   -0.0014
  Px  O   66   -0.0063   -0.0016    0.0009   -0.0013   -0.0008    0.0032   -0.0027   -0.0007
  Py  O   66    0.0095    0.0006   -0.0006   -0.0023   -0.0003    0.0024   -0.0033    0.0150
  Pz  O   66   -0.0023    0.0018   -0.0013    0.0050   -0.0012    0.0014   -0.0013    0.0013
  S   H   67   -0.0015   -0.0002    0.0002   -0.0011    0.0001    0.0002   -0.0003    0.0008
  S   H   68   -0.0006   -0.0010    0.0008   -0.0042    0.0006    0.0003   -0.0006    0.0011
  S   O   69   -0.0042   -0.0006    0.0003   -0.0001    0.0000   -0.0001    0.0002    0.0008
  Px  O   69    0.0102    0.0058   -0.0031    0.0024    0.0002   -0.0015    0.0080    0.0066
  Py  O   69    0.0216   -0.0016    0.0005    0.0022   -0.0008    0.0013   -0.0019   -0.0109
  Pz  O   69   -0.0230   -0.0028    0.0018   -0.0018    0.0002   -0.0002   -0.0011    0.0036
  S   H   70    0.0036    0.0006   -0.0002    0.0002   -0.0000    0.0000   -0.0003   -0.0001
  S   H   71    0.0020    0.0004   -0.0002   -0.0002    0.0000    0.0001   -0.0004   -0.0008
  S   H   72   -0.0068    0.0424   -0.0503   -0.0913   -0.0190    0.2734   -0.0233   -0.0014
  S   H   73   -0.0503    0.1813   -0.1339    0.0046    0.0497   -0.1284   -0.0760   -0.0108


   Root No.      97        98        99       100       101       102       103       104

                97 A      98 A      99 A     100 A     101 A     102 A     103 A     104 A   

                -8.562     0.958     0.990     1.618     2.530     3.106     3.250     3.314
  
  S   C    1    0.0005    0.0065   -0.0032    0.0225    0.0079   -0.3367   -0.1404    0.0190
  Px  C    1    0.0123    0.0049   -0.0068    0.2004    0.0079   -0.2757   -0.1079    0.0143
  Py  C    1    0.0184   -0.0060   -0.0092    0.4336   -0.0018   -0.0413   -0.0057    0.0002
  Pz  C    1    0.0274   -0.0121   -0.0097    0.6131   -0.0045    0.1278    0.0605   -0.0083
  S   O    2    0.0005    0.0002   -0.0004   -0.0040   -0.0002   -0.0036    0.0003   -0.0002
  Px  O    2   -0.0182   -0.0026    0.0039   -0.1177   -0.0040    0.1251    0.0495   -0.0066
  Py  O    2   -0.0429    0.0039    0.0056   -0.2656   -0.0004    0.0335    0.0131   -0.0019
  Pz  O    2   -0.0718    0.0069    0.0073   -0.3247    0.0033   -0.0685   -0.0362    0.0052
  S   N    3    0.0005   -0.0155    0.0046    0.0016   -0.0127    0.4137    0.1611   -0.0211
  Px  N    3    0.0138   -0.0024    0.0035   -0.0670    0.0012   -0.0456   -0.0337    0.0053
  Py  N    3    0.0870    0.0077    0.0057   -0.2679   -0.0004   -0.0832   -0.0350    0.0046
  Pz  N    3    0.0744    0.0037    0.0071   -0.3227    0.0021    0.1085    0.0280   -0.0031
  S   H    4    0.0106    0.0038   -0.0015    0.0138    0.0137   -0.3305   -0.1409    0.0190
  S   C    5    0.0482   -0.0438    0.0099    0.0113    0.0074   -0.1531   -0.1162    0.0178
  Px  C    5   -0.0020   -0.0086    0.0050    0.0188   -0.0104    0.3802    0.1472   -0.0192
  Py  C    5   -0.1332    0.0912   -0.0169   -0.0444    0.0003   -0.2693    0.0023   -0.0055
  Pz  C    5   -0.1191    0.0501   -0.0103   -0.0157   -0.0063    0.1047    0.1015   -0.0162
  S   H    6   -0.0588    0.0126   -0.0066    0.0546   -0.0012   -0.0209    0.0040   -0.0011
  S   C    7    0.0128    0.0186   -0.0025   -0.0526   -0.0011   -0.0317    0.0310   -0.0068
  Px  C    7   -0.0941    0.0105   -0.0039    0.0075   -0.0001    0.0148   -0.0122    0.0032
  Py  C    7    0.1465    0.0100    0.0023   -0.0966   -0.0015   -0.0345    0.0480   -0.0098
  Pz  C    7    0.0415    0.0055   -0.0013   -0.0523   -0.0025    0.0322    0.0119   -0.0002
  S   H    8   -0.1173    0.0641   -0.0078    0.0105   -0.0013   -0.0793    0.0268   -0.0079
  S   H    9   -0.0209    0.0144   -0.0072   -0.0005   -0.0023   -0.0091    0.0175   -0.0020
  S   C   10   -0.0236    0.0093    0.0066   -0.0025   -0.0112    0.0423    0.0135   -0.0023
  Px  C   10    0.2695   -0.2742    0.0297   -0.0092    0.0092    0.0800   -0.1836    0.0438
  Py  C   10   -0.4314    0.4660   -0.0920    0.0067   -0.0297   -0.1196    0.3503   -0.0619
  Pz  C   10   -0.1063    0.1270   -0.0235   -0.0030    0.0007    0.0319    0.1025   -0.0191
  S   C   11   -0.0077   -0.0072   -0.0329   -0.0044   -0.0090   -0.0171    0.0279   -0.0007
  Px  C   11    0.1493    0.1000   -0.2988   -0.0104   -0.0087   -0.0749    0.1878   -0.0321
  Py  C   11   -0.2460   -0.1478    0.4044    0.0062    0.0172    0.1076   -0.2917    0.0572
  Pz  C   11   -0.0903   -0.0351    0.1605    0.0021    0.0194    0.0630   -0.1443    0.0242
  S   H   12   -0.0040    0.0100    0.0156    0.0017    0.0015   -0.0071    0.0005    0.0029
  S   C   13    0.0051    0.0138    0.0300    0.0011   -0.0021    0.0230   -0.0384   -0.0127
  Px  C   13   -0.1296    0.1969    0.2271    0.0090    0.0149    0.0786   -0.1708    0.0538
  Py  C   13    0.2382   -0.3185   -0.3499   -0.0144   -0.0043   -0.1258    0.2875   -0.0441
  Pz  C   13    0.0719   -0.1432   -0.1357   -0.0055    0.0047   -0.0222    0.0817   -0.0087
  S   H   14    0.0115   -0.0052   -0.0286   -0.0015    0.0088   -0.0097    0.0206    0.0121
  S   C   15   -0.0020   -0.0241   -0.0085   -0.0008   -0.0529    0.0020    0.0062   -0.0197
  Px  C   15   -0.2446   -0.2514    0.0277   -0.0055    0.0277   -0.0593    0.1302   -0.0154
  Py  C   15    0.4357    0.4739   -0.0454    0.0097   -0.0181    0.1254   -0.2646    0.0531
  Pz  C   15    0.2160    0.2064   -0.0282    0.0046    0.0768    0.0583   -0.1170    0.0533
  S   H   16   -0.0036    0.0254   -0.0035    0.0006    0.0410    0.0166   -0.0296    0.0215
  S   C   17   -0.0160   -0.0065    0.0065   -0.0010    0.0015    0.0040   -0.0003   -0.0086
  Px  C   17    0.1063    0.0922    0.1390    0.0033   -0.0116   -0.0413    0.1158   -0.0169
  Py  C   17   -0.3175   -0.2646   -0.4386   -0.0116    0.0144    0.1396   -0.3392    0.0694
  Pz  C   17   -0.0935   -0.0733   -0.1315   -0.0041    0.0091    0.0620   -0.1310    0.0351
  S   H   18   -0.0140    0.0261    0.0045    0.0018    0.0050   -0.0172    0.0246   -0.0070
  S   C   19    0.0226   -0.0097    0.0134   -0.0006   -0.0373    0.0049    0.0083    0.0213
  Px  C   19   -0.0661    0.0728   -0.1867   -0.0008   -0.0258    0.0604   -0.1332    0.0452
  Py  C   19    0.1552   -0.2222    0.4803    0.0007   -0.0211   -0.1345    0.3261   -0.0695
  Pz  C   19    0.0269   -0.0686    0.1178   -0.0004    0.0349   -0.0156    0.0577   -0.0276
  S   H   20    0.0201    0.0232   -0.0088    0.0006    0.0343    0.0085   -0.0216   -0.0116
  S   O   21    0.0009   -0.0027   -0.0070   -0.0027   -0.0209    0.0405    0.0199   -0.0025
  Px  O   21    0.0068    0.0141   -0.0057   -0.0022   -0.0077    0.0350    0.0160   -0.0015
  Py  O   21    0.0019   -0.0034    0.0073    0.0003   -0.0019    0.0146    0.0106   -0.0017
  Pz  O   21    0.0441    0.0083    0.0291    0.0009    0.0385   -0.0163   -0.0040   -0.0004
  S   H   22   -0.0038    0.0085    0.0130    0.0042    0.0405   -0.0564   -0.0279    0.0032
  S   H   23    0.0042    0.0013    0.0060    0.0033    0.0234   -0.0575   -0.0308    0.0041
  S   O   24    0.0020   -0.0020    0.0061   -0.0001   -0.0435   -0.0033    0.0055    0.0393
  Px  O   24   -0.0132    0.0027   -0.0094    0.0001    0.0532    0.0042   -0.0070   -0.0470
  Py  O   24    0.0119   -0.0029    0.0101   -0.0000   -0.0360   -0.0027    0.0057    0.0303
  Pz  O   24    0.0012   -0.0009    0.0016    0.0000    0.0200    0.0009   -0.0003   -0.0137
  S   H   25   -0.0043    0.0043   -0.0146    0.0001    0.0724    0.0063   -0.0121   -0.0708
  S   H   26   -0.0016    0.0021   -0.0053    0.0001    0.0602    0.0047   -0.0068   -0.0563
  S   O   27   -0.0063   -0.0132   -0.0039   -0.0012   -0.0851    0.0101    0.0153    0.0014
  Px  O   27   -0.0191   -0.0122   -0.0098   -0.0014   -0.1005    0.0120    0.0151    0.0172
  Py  O   27    0.0178    0.0088    0.0023    0.0003    0.0477    0.0035   -0.0013   -0.0110
  Pz  O   27   -0.0108    0.0058   -0.0006    0.0000    0.1135    0.0038   -0.0067   -0.0162
  S   H   28    0.0004    0.0165    0.0060    0.0016    0.1869   -0.0122   -0.0231   -0.0250
  S   H   29    0.0095    0.0185    0.0044    0.0014    0.0982   -0.0139   -0.0242    0.0062
  S   O   30    0.0001   -0.0001    0.0000    0.0000   -0.0130    0.0009   -0.0145   -0.0671
  Px  O   30    0.0005   -0.0000   -0.0002    0.0000   -0.0080    0.0004   -0.0071   -0.0322
  Py  O   30    0.0000    0.0002    0.0002    0.0000    0.0101   -0.0007    0.0131    0.0625
  Pz  O   30   -0.0000   -0.0003    0.0003    0.0000   -0.0098    0.0009   -0.0123   -0.0571
  S   H   31   -0.0001    0.0002    0.0001   -0.0000    0.0216   -0.0015    0.0261    0.1225
  S   H   32   -0.0002    0.0003   -0.0001   -0.0000    0.0195   -0.0015    0.0230    0.1068
  S   O   33    0.0019    0.0030   -0.0026   -0.0000   -0.0751    0.0024   -0.0447   -0.1876
  Px  O   33    0.0195    0.0093   -0.0053    0.0001   -0.0964    0.0033   -0.0517   -0.1960
  Py  O   33    0.0014    0.0016    0.0035    0.0001    0.0321   -0.0008    0.0282    0.1346
  Pz  O   33    0.0104   -0.0015   -0.0017   -0.0000    0.0194   -0.0003    0.0067    0.0204
  S   H   34   -0.0020   -0.0019    0.0049    0.0001    0.1082   -0.0034    0.0746    0.3319
  S   H   35   -0.0021   -0.0084    0.0038   -0.0001    0.1353   -0.0047    0.0767    0.2987
  S   O   36    0.0001   -0.0007    0.0011   -0.0001   -0.0626   -0.0035    0.0043    0.0557
  Px  O   36   -0.0006    0.0013   -0.0021    0.0001    0.1047    0.0054   -0.0065   -0.0853
  Py  O   36   -0.0007    0.0004   -0.0015    0.0000    0.0423    0.0027   -0.0031   -0.0383
  Pz  O   36   -0.0003    0.0003   -0.0004    0.0000    0.0340    0.0017   -0.0021   -0.0289
  S   H   37   -0.0002    0.0011   -0.0024    0.0001    0.1220    0.0073   -0.0090   -0.1157
  S   H   38   -0.0001    0.0009   -0.0012    0.0001    0.0934    0.0050   -0.0063   -0.0845
  S   O   39   -0.0006    0.0000   -0.0004   -0.0137   -0.0003    0.0085    0.0042   -0.0007
  Px  O   39   -0.0031    0.0000   -0.0007   -0.0273   -0.0004    0.0146    0.0070   -0.0012
  Py  O   39   -0.0008    0.0000    0.0002   -0.0015    0.0000   -0.0010   -0.0007    0.0002
  Pz  O   39   -0.0011   -0.0000    0.0001   -0.0082   -0.0001    0.0045    0.0021   -0.0003
  S   H   40    0.0005   -0.0000    0.0005    0.0111    0.0003   -0.0086   -0.0044    0.0009
  S   H   41    0.0011   -0.0001    0.0007    0.0339    0.0006   -0.0207   -0.0100    0.0017
  S   O   42   -0.0001   -0.0004   -0.0000    0.0038   -0.0001    0.0054    0.0024   -0.0004
  Px  O   42    0.0012   -0.0001    0.0001    0.0038    0.0001   -0.0028   -0.0013    0.0002
  Py  O   42    0.0099   -0.0010   -0.0002    0.0136   -0.0003    0.0129    0.0059   -0.0009
  Pz  O   42   -0.0007    0.0001    0.0000    0.0009    0.0000   -0.0011   -0.0005    0.0001
  S   H   43   -0.0005    0.0004   -0.0000   -0.0022    0.0001   -0.0069   -0.0030    0.0005
  S   H   44    0.0000    0.0007    0.0002   -0.0130    0.0003   -0.0116   -0.0054    0.0008
  S   O   45    0.0016   -0.0017    0.0052   -0.0002   -0.1721   -0.0086    0.0094    0.1232
  Px  O   45   -0.0023   -0.0013    0.0029   -0.0000   -0.0706   -0.0058    0.0081    0.0836
  Py  O   45   -0.0022    0.0006   -0.0046    0.0000    0.1093    0.0078   -0.0093   -0.1094
  Pz  O   45    0.0027   -0.0005    0.0022    0.0000    0.0138    0.0004    0.0005   -0.0128
  S   H   46   -0.0019    0.0019   -0.0068    0.0002    0.2331    0.0131   -0.0145   -0.1897
  S   H   47   -0.0010    0.0026   -0.0084    0.0003    0.2820    0.0158   -0.0183   -0.2272
  S   O   48   -0.0007   -0.0003   -0.0005   -0.0003   -0.0043    0.0354    0.0167   -0.0022
  Px  O   48   -0.0001   -0.0002   -0.0005    0.0005   -0.0062    0.0452    0.0222   -0.0030
  Py  O   48    0.0134    0.0009    0.0008    0.0010    0.0031   -0.0348   -0.0146    0.0019
  Pz  O   48    0.0048    0.0003    0.0024    0.0009    0.0082   -0.0346   -0.0170    0.0022
  S   H   49    0.0004    0.0003    0.0010    0.0002    0.0067   -0.0499   -0.0239    0.0032
  S   H   50    0.0002    0.0002    0.0006   -0.0005    0.0063   -0.0522   -0.0257    0.0035
  S   O   51    0.0001   -0.0005   -0.0000   -0.0001   -0.0786    0.0019   -0.0373   -0.1684
  Px  O   51    0.0011   -0.0010   -0.0001   -0.0002   -0.1161    0.0022   -0.0484   -0.2154
  Py  O   51   -0.0034   -0.0014    0.0012    0.0000    0.0628   -0.0024    0.0439    0.1949
  Pz  O   51   -0.0005    0.0000    0.0002    0.0000    0.0412    0.0006    0.0101    0.0356
  S   H   52   -0.0000    0.0013   -0.0002    0.0002    0.1449   -0.0021    0.0586    0.2592
  S   H   53   -0.0010   -0.0007    0.0010    0.0001    0.1373   -0.0046    0.0845    0.3820
  S   O   54    0.0010   -0.0040    0.0021   -0.0005   -0.2168   -0.0045    0.0031    0.0712
  Px  O   54    0.0028   -0.0010    0.0046   -0.0002   -0.2077   -0.0078    0.0095    0.1281
  Py  O   54   -0.0049   -0.0022   -0.0048   -0.0001    0.0928    0.0059   -0.0012   -0.0610
  Pz  O   54   -0.0003   -0.0018   -0.0006   -0.0001    0.0486    0.0020    0.0066    0.0014
  S   H   55   -0.0012    0.0045   -0.0015    0.0006    0.2676    0.0055   -0.0042   -0.0916
  S   H   56   -0.0015    0.0036   -0.0068    0.0006    0.4104    0.0126   -0.0096   -0.1927
  S   O   57    0.0001   -0.0014    0.0003   -0.0002   -0.1189   -0.0009   -0.0194   -0.0623
  Px  O   57    0.0005   -0.0031    0.0009   -0.0004   -0.2179   -0.0028   -0.0208   -0.0418
  Py  O   57   -0.0001    0.0005   -0.0001    0.0001    0.0731    0.0001    0.0211    0.0817
  Pz  O   57    0.0003   -0.0018    0.0005   -0.0002   -0.0818   -0.0008   -0.0027    0.0018
  S   H   58   -0.0002    0.0037   -0.0011    0.0005    0.2940    0.0035    0.0299    0.0652
  S   H   59   -0.0000    0.0014   -0.0003    0.0002    0.1776    0.0011    0.0410    0.1451
  S   O   60    0.0007   -0.0005    0.0021   -0.0005   -0.0001    0.0013   -0.0016    0.0004
  Px  O   60    0.0031    0.0001   -0.0007   -0.0007   -0.0001    0.0008    0.0005    0.0000
  Py  O   60    0.0050   -0.0003    0.0011   -0.0007    0.0000    0.0005   -0.0003    0.0000
  Pz  O   60    0.0063    0.0008   -0.0066    0.0009    0.0004   -0.0027    0.0040   -0.0010
  S   H   61   -0.0005    0.0009   -0.0055    0.0007    0.0003   -0.0028    0.0046   -0.0012
  S   H   62    0.0002    0.0004   -0.0018    0.0008    0.0002   -0.0019    0.0014   -0.0005
  S   O   63   -0.0001   -0.0001   -0.0001    0.0000   -0.0006    0.0064    0.0031   -0.0004
  Px  O   63   -0.0000   -0.0001   -0.0001    0.0001   -0.0008    0.0083    0.0041   -0.0006
  Py  O   63   -0.0002    0.0000   -0.0000    0.0000   -0.0003    0.0030    0.0015   -0.0002
  Pz  O   63    0.0004    0.0000    0.0001   -0.0000    0.0006   -0.0047   -0.0023    0.0003
  S   H   64    0.0000    0.0001    0.0001   -0.0001    0.0010   -0.0100   -0.0049    0.0007
  S   H   65    0.0002    0.0001    0.0001   -0.0000    0.0009   -0.0097   -0.0047    0.0006
  S   O   66   -0.0006    0.0014   -0.0002   -0.0009   -0.0079    0.0260    0.0159   -0.0019
  Px  O   66    0.0042    0.0028    0.0028   -0.0002   -0.0030    0.0155    0.0122   -0.0014
  Py  O   66   -0.0020   -0.0034   -0.0009    0.0011    0.0079   -0.0244   -0.0163    0.0021
  Pz  O   66    0.0024    0.0009    0.0028   -0.0001    0.0009    0.0036    0.0040   -0.0009
  S   H   67   -0.0002   -0.0039   -0.0026    0.0012    0.0110   -0.0426   -0.0299    0.0039
  S   H   68    0.0003   -0.0013    0.0011    0.0009    0.0100   -0.0327   -0.0192    0.0021
  S   O   69   -0.0019   -0.0065    0.0023   -0.0003   -0.0364    0.0033   -0.0004   -0.0419
  Px  O   69   -0.0282   -0.0182    0.0043   -0.0008   -0.0510    0.0054    0.0143   -0.0177
  Py  O   69    0.0104   -0.0029   -0.0037   -0.0002    0.0077    0.0001    0.0117    0.0379
  Pz  O   69    0.0025    0.0083   -0.0017    0.0004    0.0593   -0.0037    0.0088    0.0863
  S   H   70    0.0023    0.0166   -0.0033    0.0008    0.0686   -0.0074   -0.0146    0.0422
  S   H   71    0.0020    0.0048   -0.0033    0.0002    0.0569   -0.0041    0.0146    0.1044
  S   H   72   -0.0086   -0.0043    0.0019   -0.0040   -0.0033    0.2021    0.0805   -0.0107
  S   H   73   -0.0178    0.0014   -0.0000    0.0258   -0.0000    0.0184    0.0072   -0.0010


              NET ATOMIC CHARGES AND DIPOLE CONTRIBUTIONS

  ATOM NO.   TYPE          CHARGE      No. of ELECS.   s-Pop       p-Pop       
    1          C           0.438676        3.5613     1.07554     2.48578
    2          O          -0.621627        6.6216     1.88435     4.73728
    3          N          -0.472455        5.4725     1.54432     3.92813
    4          H           0.359108        0.6409     0.64089
    5          C          -0.045830        4.0458     1.06457     2.98126
    6          H           0.168480        0.8315     0.83152
    7          C          -0.319614        4.3196     1.06311     3.25650
    8          H           0.183548        0.8165     0.81645
    9          H           0.182072        0.8179     0.81793
   10          C           0.043110        3.9569     1.08164     2.87525
   11          C          -0.189058        4.1891     1.08593     3.10313
   12          H           0.156350        0.8436     0.84365
   13          C          -0.139657        4.1397     1.08726     3.05239
   14          H           0.147151        0.8528     0.85285
   15          C          -0.220486        4.2205     1.08674     3.13375
   16          H           0.133332        0.8667     0.86667
   17          C          -0.161491        4.1615     1.09132     3.07017
   18          H           0.163763        0.8362     0.83624
   19          C          -0.151946        4.1519     1.09883     3.05311
   20          H           0.172015        0.8280     0.82799
   21          O          -0.882937        6.8829     1.80947     5.07346
   22          H           0.393402        0.6066     0.60660
   23          H           0.418624        0.5814     0.58138
   24          O          -0.784044        6.7840     1.81042     4.97362
   25          H           0.382205        0.6178     0.61779
   26          H           0.405869        0.5941     0.59413
   27          O          -0.763719        6.7637     1.82671     4.93701
   28          H           0.367167        0.6328     0.63283
   29          H           0.416631        0.5834     0.58337
   30          O          -0.773011        6.7730     1.79933     4.97368
   31          H           0.355187        0.6448     0.64481
   32          H           0.418487        0.5815     0.58151
   33          O          -0.693539        6.6935     1.82261     4.87093
   34          H           0.348655        0.6513     0.65134
   35          H           0.356708        0.6433     0.64329
   36          O          -0.825829        6.8258     1.81822     5.00761
   37          H           0.381845        0.6182     0.61816
   38          H           0.418891        0.5811     0.58111
   39          O          -0.862708        6.8627     1.79711     5.06560
   40          H           0.430859        0.5691     0.56914
   41          H           0.423927        0.5761     0.57607
   42          O          -0.808927        6.8089     1.84773     4.96120
   43          H           0.432080        0.5679     0.56792
   44          H           0.370122        0.6299     0.62988
   45          O          -0.810049        6.8100     1.82690     4.98315
   46          H           0.461687        0.5383     0.53831
   47          H           0.406719        0.5933     0.59328
   48          O          -0.741039        6.7410     1.84960     4.89144
   49          H           0.376593        0.6234     0.62341
   50          H           0.376424        0.6236     0.62358
   51          O          -0.837758        6.8378     1.83208     5.00568
   52          H           0.392042        0.6080     0.60796
   53          H           0.415765        0.5842     0.58424
   54          O          -0.796325        6.7963     1.79635     4.99998
   55          H           0.377080        0.6229     0.62292
   56          H           0.429134        0.5709     0.57087
   57          O          -0.815079        6.8151     1.86721     4.94787
   58          H           0.399351        0.6006     0.60065
   59          H           0.416849        0.5832     0.58315
   60          O          -0.761922        6.7619     1.84801     4.91391
   61          H           0.395274        0.6047     0.60473
   62          H           0.366410        0.6336     0.63359
   63          O          -0.782932        6.7829     1.81953     4.96340
   64          H           0.387678        0.6123     0.61232
   65          H           0.395153        0.6048     0.60485
   66          O          -0.751772        6.7518     1.81776     4.93401
   67          H           0.378510        0.6215     0.62149
   68          H           0.407956        0.5920     0.59204
   69          O          -0.796663        6.7967     1.83219     4.96447
   70          H           0.394532        0.6055     0.60547
   71          H           0.362141        0.6379     0.63786
   72          H          -0.005498        1.0055     1.00550
   73          H           0.208350        0.7916     0.79165
 DIPOLE           X         Y         Z       TOTAL
 POINT-CHG.    26.167    -3.805   -10.757    28.547
 HYBRID         1.136    -0.267    -1.675     2.041
 SUM           27.304    -4.072   -12.431    30.276


          ATOMIC ORBITAL ELECTRON POPULATIONS

     Atom    s        px        py        pz   
    1  C   1.07554   0.84594   0.84324   0.79660
    2  O   1.88435   1.82719   1.43487   1.47522
    3  N   1.54432   1.14030   1.37486   1.41297
    4  H   0.64089
    5  C   1.06457   0.92628   0.95919   1.09579
    6  H   0.83152
    7  C   1.06311   1.17250   1.07735   1.00665
    8  H   0.81645
    9  H   0.81793
   10  C   1.08164   0.96521   0.93502   0.97501
   11  C   1.08593   1.03118   1.05161   1.02034
   12  H   0.84365
   13  C   1.08726   1.04275   1.01286   0.99679
   14  H   0.85285
   15  C   1.08674   1.02703   1.02684   1.07988
   16  H   0.86667
   17  C   1.09132   1.06775   1.01367   0.98875
   18  H   0.83624
   19  C   1.09883   1.01390   1.00855   1.03066
   20  H   0.82799
   21  O   1.80947   1.66693   1.85096   1.55558
   22  H   0.60660
   23  H   0.58138
   24  O   1.81042   1.58727   1.46828   1.91807
   25  H   0.61779
   26  H   0.59413
   27  O   1.82671   1.73944   1.47129   1.72628
   28  H   0.63283
   29  H   0.58337
   30  O   1.79933   1.93387   1.51493   1.52488
   31  H   0.64481
   32  H   0.58151
   33  O   1.82261   1.48355   1.47348   1.91390
   34  H   0.65134
   35  H   0.64329
   36  O   1.81822   1.65873   1.45247   1.89640
   37  H   0.61816
   38  H   0.58111
   39  O   1.79711   1.59565   1.50910   1.96085
   40  H   0.56914
   41  H   0.57607
   42  O   1.84773   1.74565   1.49515   1.72040
   43  H   0.56792
   44  H   0.62988
   45  O   1.82690   1.82550   1.65785   1.49980
   46  H   0.53831
   47  H   0.59328
   48  O   1.84960   1.45429   1.95166   1.48549
   49  H   0.62341
   50  H   0.62358
   51  O   1.83208   1.69472   1.58601   1.72494
   52  H   0.60796
   53  H   0.58424
   54  O   1.79635   1.62069   1.54901   1.83028
   55  H   0.62292
   56  H   0.57087
   57  O   1.86721   1.53508   1.79065   1.62213
   58  H   0.60065
   59  H   0.58315
   60  O   1.84801   1.44080   1.99947   1.47364
   61  H   0.60473
   62  H   0.63359
   63  O   1.81953   1.62670   1.88258   1.45413
   64  H   0.61232
   65  H   0.60485
   66  O   1.81776   1.63253   1.77149   1.53000
   67  H   0.62149
   68  H   0.59204
[...]
  
  S  H  62  -0.00000     0.00000    -0.00000    -0.00036     0.00000    -0.00000
  
  S  O  63  -0.00004    -0.00020     0.00000    -0.00014     0.00475    -0.00020
 PX  O  63  -0.00005    -0.00026     0.00000    -0.00018    -0.48637    -0.00025
 PY  O  63  -0.00001    -0.00008    -0.00000    -0.00009     0.87114    -0.00009
 PZ  O  63   0.00008     0.00033    -0.00000     0.00009    -0.06694     0.00027
  
  S  H  64   0.00006     0.00061    -0.00000     0.00040     0.00018     0.00040
  
  S  H  65   0.00007     0.00012    -0.00000     0.00028    -0.00008     0.00032
  
  S  O  66  -0.00136     0.02761     0.00001     0.00013     0.00011     0.00039
 PX  O  66   0.00086     0.49640    -0.00000    -0.00001     0.00005     0.00101
 PY  O  66   0.00153     0.77308    -0.00001    -0.00018    -0.00005    -0.00088
 PZ  O  66   0.00021     0.38035     0.00001     0.00000     0.00013     0.00022
  
  S  H  67   0.00115     0.00091    -0.00001    -0.00029    -0.00017    -0.00232
  
  S  H  68   0.00196    -0.00323    -0.00000    -0.00015    -0.00012    -0.00050
  
  S  O  69   0.00552     0.00025     0.00035     0.00005     0.00000    -0.00055
 PX  O  69   0.00956     0.00074    -0.36632     0.00013     0.00000    -0.00123
 PY  O  69   0.00176     0.00020     0.82564     0.00003     0.00000    -0.00029
 PZ  O  69  -0.00488    -0.00023    -0.42905    -0.00005    -0.00000     0.00046
  
  S  H  70  -0.02618    -0.00072    -0.00004    -0.00022    -0.00000     0.00242
  
  S  H  71  -0.00502    -0.00013     0.00003    -0.00004    -0.00000     0.00029
  
  S  H  72  -0.00003     0.00002    -0.00001    -0.00556    -0.00002     0.00034
  
  S  H  73   0.00010    -0.00008    -0.00001    -0.01011    -0.00043    -0.00024




    ROOT NO.   91          92          93          94          95          96

           -11.09145   -10.51068   -10.39727   -10.21670   -10.18720   -10.13152
  
  
  S  C   1   0.01995     0.00002    -0.00470     0.00188    -0.00498    -0.00104
 PX  C   1   0.15971     0.00016    -0.00848     0.00333     0.00151    -0.00140
 PY  C   1  -0.04258     0.00032     0.00195     0.00119     0.00432    -0.00054
 PZ  C   1  -0.02312     0.00036     0.00125     0.00124    -0.00551    -0.00036
  
  S  O   2  -0.00367    -0.00000     0.00068    -0.00016     0.00279     0.00006
 PX  O   2   0.90320    -0.00008     0.00329    -0.00079     0.00134     0.00031
 PY  O   2  -0.36600    -0.00008     0.00168    -0.00066     0.00425     0.00030
 PZ  O   2  -0.02752    -0.00015    -0.00214     0.00003    -0.00395     0.00006
  
  S  N   3  -0.06294    -0.00010     0.01889    -0.00410     0.00013     0.00135
 PX  N   3   0.06083    -0.00008     0.00216    -0.00003    -0.00017     0.00009
 PY  N   3   0.01436     0.00002     0.01362    -0.00105     0.00026    -0.00045
 PZ  N   3  -0.03002    -0.00005    -0.01132     0.00091     0.00065     0.00031
  
  S  H   4   0.03947     0.00012    -0.05150     0.00667    -0.00090    -0.00024
  
  S  C   5   0.00880     0.00080    -0.00395    -0.01007    -0.00007     0.00842
 PX  C   5  -0.03029    -0.00004     0.00884    -0.00259    -0.00026     0.00125
 PY  C   5   0.01508    -0.00112    -0.00446     0.01847     0.00029    -0.01481
 PZ  C   5  -0.01283    -0.00088     0.00278     0.00904    -0.00058    -0.00820
  
  S  H   6   0.00702     0.00037     0.00203     0.00403     0.00071    -0.00295
  
  S  C   7  -0.00218    -0.00531     0.00043     0.00306     0.00044    -0.00240
 PX  C   7   0.00166     0.00307    -0.00040     0.00214    -0.00038    -0.00048
 PY  C   7   0.00032     0.00364     0.00096     0.00384    -0.00037    -0.00478
 PZ  C   7  -0.00206    -0.00422     0.00067     0.00299     0.00038    -0.00386
  
  S  H   8   0.00394     0.00113    -0.00103     0.01239    -0.00002    -0.01089
  
  S  H   9   0.00277     0.01087     0.00010     0.00389    -0.00086    -0.00288
  
  S  C  10  -0.00178    -0.00032     0.00065     0.00104    -0.00001    -0.00493
 PX  C  10  -0.00050    -0.00010     0.00010    -0.14157    -0.00005     0.10058
 PY  C  10   0.00021     0.00069     0.00043     0.25936     0.00003    -0.17603
 PZ  C  10  -0.00206    -0.00020     0.00076     0.07606     0.00002    -0.04967
  
  S  C  11   0.00006    -0.00078     0.00006     0.00124     0.00019     0.00567
 PX  C  11   0.00102     0.00138     0.00025     0.05215    -0.00019    -0.05920
 PY  C  11  -0.00047     0.00014    -0.00035    -0.07057    -0.00018     0.08437
 PZ  C  11  -0.00029    -0.00050    -0.00013    -0.01788     0.00018     0.02024
  
  S  H  12   0.00041     0.00162    -0.00006    -0.00005    -0.00017     0.00061
  
  S  C  13  -0.00013     0.00021     0.00009     0.00849    -0.00002    -0.01454
 PX  C  13  -0.00002    -0.00013    -0.00014     0.10357    -0.00004    -0.28200
 PY  C  13  -0.00002     0.00045     0.00033    -0.16109     0.00004     0.46687
 PZ  C  13  -0.00023     0.00045     0.00018    -0.07320    -0.00001     0.19279
  
  S  H  14   0.00012     0.00011    -0.00001    -0.00514    -0.00001     0.01123
  
  S  C  15  -0.00014    -0.00007     0.00037    -0.00648     0.00002    -0.02426
 PX  C  15  -0.00023     0.00010    -0.00017    -0.05557    -0.00001    -0.32049
 PY  C  15   0.00041     0.00006     0.00072     0.10892    -0.00003     0.57751
 PZ  C  15   0.00017    -0.00005     0.00009     0.04020     0.00001     0.25102
  
  S  H  16  -0.00001     0.00006     0.00008     0.00050    -0.00001     0.00788
  
  S  C  17  -0.00039    -0.00032     0.00040     0.01132     0.00006     0.00103
 PX  C  17   0.00032     0.00009    -0.00026    -0.22020    -0.00005     0.03704
 PY  C  17  -0.00079     0.00039     0.00136     0.62621     0.00000    -0.11308
 PZ  C  17  -0.00046    -0.00016     0.00033     0.16653     0.00006    -0.03346
  
  S  H  18   0.00013     0.00001    -0.00003    -0.00132    -0.00000    -0.00061
  
  S  C  19  -0.00015    -0.00001     0.00048     0.02602    -0.00000     0.00709
 PX  C  19   0.00016     0.00024    -0.00015    -0.20631    -0.00000    -0.10952
 PY  C  19  -0.00050    -0.00047     0.00060     0.54645    -0.00002     0.27080
 PZ  C  19  -0.00023    -0.00009     0.00010     0.16067    -0.00001     0.07928
  
  S  H  20   0.00000    -0.00005     0.00010    -0.00440     0.00001     0.00124
  
  S  O  21  -0.00131     0.00000     0.01048    -0.00889     0.00003    -0.00672
 PX  O  21  -0.00092     0.00000     0.01295    -0.00351     0.00002    -0.00236
 PY  O  21  -0.00026    -0.00000     0.00721    -0.00180     0.00000     0.00158
 PZ  O  21  -0.00046    -0.00002    -0.00538     0.01256     0.00001     0.01253
  
  S  H  22   0.00230    -0.00001    -0.01503     0.03318    -0.00004     0.03017
  
  S  H  23   0.00173    -0.00000    -0.03828     0.02255    -0.00003     0.00784
  
  S  O  24  -0.00001    -0.00002     0.00003     0.00553     0.00000     0.00501
 PX  O  24   0.00002     0.00002    -0.00005    -0.00728    -0.00000    -0.00674
 PY  O  24  -0.00002    -0.00002     0.00005     0.00828     0.00000     0.00720
 PZ  O  24  -0.00001    -0.00001     0.00001     0.00245     0.00000     0.00212
  
  S  H  25   0.00004     0.00006    -0.00010    -0.02906    -0.00000    -0.02435
  
  S  H  26   0.00001     0.00001    -0.00003    -0.00445    -0.00000    -0.00508
  
  S  O  27  -0.00018    -0.00000     0.00099    -0.00236     0.00000    -0.00370
 PX  O  27  -0.00024     0.00000     0.00122    -0.00289     0.00001    -0.00405
 PY  O  27   0.00002     0.00000     0.00000     0.00117    -0.00000    -0.00027
 PZ  O  27  -0.00019     0.00000     0.00075     0.00057     0.00000     0.00287
  
  S  H  28   0.00024     0.00000    -0.00131     0.00612    -0.00001     0.01264
  
  S  H  29   0.00022     0.00000    -0.00121     0.00461    -0.00001     0.00886
  
  S  O  30  -0.00000    -0.00000     0.00000    -0.00003     0.00000     0.00014
 PX  O  30  -0.00000    -0.00000     0.00000    -0.00002     0.00000     0.00010
 PY  O  30   0.00000    -0.00000    -0.00000     0.00004    -0.00000    -0.00012
 PZ  O  30  -0.00000    -0.00000     0.00000    -0.00003     0.00000     0.00010
  
  S  H  31   0.00000     0.00000    -0.00000     0.00009    -0.00000    -0.00033
  
  S  H  32   0.00000     0.00000    -0.00000     0.00008    -0.00000    -0.00033
  
  S  O  33  -0.00000    -0.00000     0.00001     0.00001     0.00000     0.00301
 PX  O  33   0.00000     0.00000     0.00002     0.00054     0.00000     0.00467
 PY  O  33   0.00000    -0.00000    -0.00000     0.00062    -0.00000    -0.00185
 PZ  O  33  -0.00000     0.00000    -0.00000    -0.00025     0.00000    -0.00096
  
  S  H  34   0.00000    -0.00000    -0.00001     0.00093    -0.00000    -0.00711
  
  S  H  35  -0.00000     0.00000    -0.00002    -0.00038    -0.00000    -0.01194
  
  S  O  36  -0.00000     0.00000     0.00001     0.00017    -0.00000     0.00013
 PX  O  36   0.00000     0.00000    -0.00002    -0.00026     0.00000    -0.00023
 PY  O  36   0.00000     0.00000    -0.00000    -0.00027     0.00000    -0.00024
 PZ  O  36   0.00000     0.00000    -0.00000    -0.00005    -0.00000    -0.00003
  
  S  H  37   0.00000     0.00000    -0.00001    -0.00071     0.00000    -0.00049
  
  S  H  38   0.00000    -0.00000    -0.00001    -0.00018     0.00000    -0.00010
  
  S  O  39   0.00144    -0.00004     0.00009    -0.00001     0.00919    -0.00000
 PX  O  39   0.00212    -0.00007     0.00019    -0.00004     0.01576    -0.00001
 PY  O  39  -0.00010     0.00001     0.00003    -0.00002     0.00124     0.00000
 PZ  O  39   0.00060    -0.00002     0.00006    -0.00001     0.00482     0.00001
  
  S  H  40  -0.00164     0.00006    -0.00006    -0.00003    -0.00726     0.00001
  
  S  H  41  -0.00640     0.00011    -0.00026     0.00001    -0.03866    -0.00004
  
  S  O  42  -0.00998    -0.00003     0.00004    -0.00005     0.00028     0.00004
 PX  O  42  -0.00292    -0.00001    -0.00003    -0.00001     0.72203     0.00001
 PY  O  42  -0.02147    -0.00006     0.00014    -0.00012     0.01567     0.00009
 PZ  O  42   0.00322     0.00003    -0.00004     0.00002     0.69021    -0.00001
  
  S  H  43   0.00587     0.00004    -0.00003     0.00007     0.00028    -0.00006
  
  S  H  44   0.04772     0.00005    -0.00009     0.00016     0.00086    -0.00014
  
  S  O  45  -0.00001    -0.00000     0.00002     0.00106    -0.00000     0.00102
 PX  O  45   0.00000    -0.00000    -0.00001     0.00084    -0.00000     0.00079
 PY  O  45   0.00000     0.00000     0.00000    -0.00139     0.00000    -0.00119
 PZ  O  45  -0.00000    -0.00000     0.00000     0.00064    -0.00000     0.00062
  
  S  H  46   0.00001     0.00000    -0.00003    -0.00204     0.00000    -0.00206
  
  S  H  47   0.00001     0.00000    -0.00004    -0.00418     0.00000    -0.00351
  
  S  O  48  -0.00138    -0.00000     0.00387    -0.00084     0.00002    -0.00035
 PX  O  48  -0.00147    -0.00000     0.10585    -0.00108     0.00003    -0.00034
 PY  O  48   0.00232     0.00000     0.96324     0.00037    -0.00005     0.00016
 PZ  O  48   0.00080     0.00000     0.23464     0.00161    -0.00001     0.00089
  
  S  H  49   0.00208     0.00000     0.00155     0.00211    -0.00003     0.00094
  
  S  H  50   0.00186     0.00000     0.00185     0.00159    -0.00002     0.00045
  
  S  O  51  -0.00000    -0.00000     0.00002     0.00001     0.00000     0.00010
 PX  O  51  -0.00001    -0.00000     0.00003    -0.00000     0.00000     0.00012
 PY  O  51  -0.00000     0.00000     0.00000    -0.00003    -0.00000    -0.00056
 PZ  O  51  -0.00000    -0.00000     0.00001    -0.00001     0.00000    -0.00004
  
  S  H  52   0.00001     0.00000    -0.00003    -0.00003    -0.00000     0.00010
  
  S  H  53   0.00001     0.00000    -0.00002     0.00001    -0.00000    -0.00101
  
  S  O  54  -0.00002    -0.00000     0.00011     0.00047     0.00000     0.00061
 PX  O  54  -0.00000    -0.00000     0.00001     0.00104    -0.00000     0.00137
 PY  O  54  -0.00002     0.00000     0.00007    -0.00124     0.00000    -0.00160
 PZ  O  54  -0.00002    -0.00000     0.00009    -0.00007     0.00000    -0.00011
  
  S  H  55   0.00003     0.00000    -0.00013    -0.00026    -0.00000    -0.00030
  
  S  H  56   0.00003     0.00000    -0.00015    -0.00345    -0.00000    -0.00507
  
  S  O  57  -0.00001    -0.00000     0.00003     0.00002     0.00000     0.00001
 PX  O  57  -0.00002    -0.00000     0.00007     0.00005     0.00000     0.00003
 PY  O  57   0.00000     0.00000    -0.00000    -0.00001    -0.00000    -0.00004
 PZ  O  57  -0.00001    -0.00000     0.00005     0.00001     0.00000    -0.00003
  
  S  H  58   0.00002     0.00000    -0.00009    -0.00016    -0.00000    -0.00001
  
  S  H  59   0.00000     0.00000    -0.00002    -0.00003    -0.00000    -0.00005
  
  S  O  60  -0.00003    -0.00045     0.00001    -0.00005     0.00001     0.00008
 PX  O  60  -0.00003     0.01278     0.00001     0.00006    -0.00000    -0.00011
 PY  O  60  -0.00004     0.99978     0.00000    -0.00001     0.00001     0.00008
 PZ  O  60   0.00003    -0.00928    -0.00001     0.00007    -0.00002    -0.00031
  
  S  H  61   0.00002    -0.00003    -0.00001     0.00036    -0.00003    -0.00014
  
  S  H  62   0.00003    -0.00002    -0.00001    -0.00003    -0.00001     0.00008
  
  S  O  63  -0.00012     0.00000    -0.00321    -0.00004     0.00000    -0.00001
 PX  O  63  -0.00013     0.00000    -0.00445    -0.00005     0.00000    -0.00002
 PY  O  63  -0.00001     0.00000    -0.00229    -0.00001    -0.00000    -0.00001
 PZ  O  63   0.00015    -0.00000     0.00264     0.00006    -0.00000     0.00002
  
  S  H  64   0.00019    -0.00000     0.01141     0.00010    -0.00000     0.00003
  
  S  H  65   0.00019    -0.00000     0.00458     0.00007    -0.00000     0.00002
  
  S  O  66  -0.00029     0.00000     0.00279    -0.00233     0.00001    -0.00039
 PX  O  66   0.00002     0.00000    -0.00034    -0.00175    -0.00000     0.00024
 PY  O  66   0.00033    -0.00000    -0.00301     0.00253    -0.00001     0.00042
 PZ  O  66  -0.00016    -0.00000     0.00011    -0.00070     0.00000     0.00037
  
  S  H  67   0.00044    -0.00000    -0.00403     0.00861    -0.00001    -0.00007
  
  S  H  68   0.00038    -0.00000    -0.00404     0.00419    -0.00001     0.00099
  
  S  O  69  -0.00005    -0.00000     0.00024    -0.00037     0.00000    -0.00367
 PX  O  69  -0.00014    -0.00000     0.00065    -0.00162     0.00000    -0.00569
 PY  O  69  -0.00003     0.00000     0.00017    -0.00057     0.00000    -0.00105
 PZ  O  69   0.00005     0.00000    -0.00022     0.00032    -0.00000     0.00351
  
  S  H  70   0.00015     0.00000    -0.00075     0.00149    -0.00000     0.01942
  
  S  H  71   0.00005     0.00000    -0.00015    -0.00048    -0.00000     0.00583
  
  S  H  72   0.08045    -0.00005    -0.00037    -0.00031     0.00107     0.00030
  
  S  H  73  -0.00125    -0.00049    -0.00101     0.00216    -0.00007    -0.00066




    ROOT NO.   97

           -10.11396
  
  
  S  C   1   0.00250
 PX  C   1   0.00318
 PY  C   1  -0.00089
 PZ  C   1  -0.00093
  
  S  O   2  -0.00026
 PX  O   2  -0.00063
 PY  O   2  -0.00046
 PZ  O   2   0.00060
  
  S  N   3  -0.00347
 PX  N   3  -0.00013
 PY  N   3  -0.00024
 PZ  N   3  -0.00108
  
  S  H   4   0.00390
  
  S  C   5  -0.01417
 PX  C   5  -0.00378
 PY  C   5   0.02520
 PZ  C   5   0.01124
  
  S  H   6   0.00432
  
  S  C   7   0.00752
 PX  C   7  -0.00865
 PY  C   7   0.02217
 PZ  C   7   0.00802
  
  S  H   8   0.01651
  
  S  H   9   0.00382
  
  S  C  10   0.00072
 PX  C  10  -0.26726
 PY  C  10   0.47698
 PZ  C  10   0.13724
  
  S  C  11  -0.02632
 PX  C  11  -0.39692
 PY  C  11   0.54982
 PZ  C  11   0.17986
  
  S  H  12   0.00416
  
  S  C  13  -0.00164
 PX  C  13  -0.17093
 PY  C  13   0.27011
 PZ  C  13   0.12395
  
  S  H  14   0.00598
  
  S  C  15   0.00656
 PX  C  15   0.04651
 PY  C  15  -0.08953
 PZ  C  15  -0.03502
  
  S  H  16  -0.00242
  
  S  C  17  -0.00138
 PX  C  17  -0.04469
 PY  C  17   0.12506
 PZ  C  17   0.03631
  
  S  H  18   0.00259
  
  S  C  19  -0.00620
 PX  C  19   0.06995
 PY  C  19  -0.17817
 PZ  C  19  -0.04863
  
  S  H  20   0.00135
  
  S  O  21   0.00210
 PX  O  21   0.00019
 PY  O  21  -0.00100
 PZ  O  21  -0.00556
  
  S  H  22  -0.00911
  
  S  H  23  -0.00239
  
  S  O  24  -0.00062
 PX  O  24   0.00094
 PY  O  24  -0.00128
 PZ  O  24  -0.00031
  
  S  H  25   0.00315
  
  S  H  26   0.00050
  
  S  O  27   0.00136
 PX  O  27   0.00201
 PY  O  27  -0.00069
 PZ  O  27  -0.00094
  
  S  H  28  -0.00428
  
  S  H  29  -0.00332
  
  S  O  30   0.00006
 PX  O  30   0.00003
 PY  O  30  -0.00006
 PZ  O  30   0.00006
  
  S  H  31  -0.00014
  
  S  H  32  -0.00020
  
  S  O  33   0.00008
 PX  O  33  -0.00009
 PY  O  33  -0.00070
 PZ  O  33   0.00047
  
  S  H  34  -0.00085
  
  S  H  35   0.00099
  
  S  O  36  -0.00009
 PX  O  36   0.00015
 PY  O  36   0.00014
 PZ  O  36   0.00002
  
  S  H  37   0.00036
  
  S  H  38   0.00010
  
  S  O  39  -0.00024
 PX  O  39  -0.00035
 PY  O  39   0.00002
 PZ  O  39  -0.00013
  
  S  H  40   0.00038
  
  S  H  41   0.00124
  
  S  O  42  -0.00010
 PX  O  42  -0.00000
 PY  O  42  -0.00021
 PZ  O  42   0.00003
  
  S  H  43   0.00014
  
  S  H  44   0.00039
  
  S  O  45  -0.00050
 PX  O  45  -0.00034
 PY  O  45   0.00057
 PZ  O  45  -0.00031
  
  S  H  46   0.00119
  
  S  H  47   0.00185
  
  S  O  48   0.00008
 PX  O  48   0.00006
 PY  O  48   0.00002
 PZ  O  48  -0.00034
  
  S  H  49  -0.00035
  
  S  H  50  -0.00016
  
  S  O  51   0.00001
 PX  O  51   0.00002
 PY  O  51  -0.00002
 PZ  O  51  -0.00003
  
  S  H  52  -0.00003
  
  S  H  53   0.00001
  
  S  O  54  -0.00026
 PX  O  54  -0.00060
 PY  O  54   0.00074
 PZ  O  54   0.00003
  
  S  H  55   0.00010
  
  S  H  56   0.00200
  
  S  O  57  -0.00000
 PX  O  57  -0.00001
 PY  O  57   0.00000
 PZ  O  57   0.00001
  
  S  H  58   0.00001
  
  S  H  59   0.00001
  
  S  O  60   0.00125
 PX  O  60  -0.00015
 PY  O  60  -0.00016
 PZ  O  60  -0.00256
  
  S  H  61  -0.00769
  
  S  H  62  -0.00171
  
  S  O  63   0.00000
 PX  O  63   0.00000
 PY  O  63   0.00000
 PZ  O  63  -0.00001
  
  S  H  64  -0.00001
  
  S  H  65  -0.00000
  
  S  O  66   0.00012
 PX  O  66  -0.00009
 PY  O  66   0.00004
 PZ  O  66  -0.00033
  
  S  H  67  -0.00010
  
  S  H  68  -0.00064
  
  S  O  69   0.00018
 PX  O  69   0.00057
 PY  O  69   0.00062
 PZ  O  69  -0.00023
  
  S  H  70  -0.00194
  
  S  H  71   0.00010
  
  S  H  72  -0.00008
  
  S  H  73   0.00101

          BONDING CONTRIBUTION OF EACH M.O.

  1.8681  1.6576  1.9547  1.7727  1.7070  1.7473  1.6485  1.6270  0.0427  0.0262
  1.6210  1.6226  1.7530  0.1194  0.0459  1.6694  1.7362  1.6665  1.6577  0.0115
  1.6958  1.6165  1.7004  1.6604  0.0910  1.6981  1.5400  1.6476  1.6208  0.0713
  0.0005  1.6531  1.6738  0.0017  1.6370  0.0513  1.5686  1.6454  1.6072  1.9977
  1.6841  1.9924  1.5583  0.0012  0.0014  0.0002  1.9926  1.7072  1.9961  1.9969
  0.0001  1.9979  1.7289  0.0001  1.9530  0.0043  1.7140  1.7041  0.0008  1.6824
  1.7133  0.0069  1.9587  1.9912  1.9778  1.6246  1.9550  1.9432  1.9485  1.9227
  2.0007  1.9503  1.9479  1.9372  0.0867  0.0542  0.0029  0.0866  0.0863  0.0001
  0.0055  1.0999  0.0256  0.0003  0.0811  0.0672  0.0003  1.1284  0.0003  0.0064
  0.2938  0.0012  0.0374  2.0088  0.0131  1.9550  2.0204 -1.9908 -2.0163 -2.1761
 -1.7461 -1.9480 -1.9767 -1.7439 -1.7368 -1.7222 -1.7546 -1.7215 -1.7430 -1.9277
 -1.9461 -1.7281 -1.9456 -1.6683 -1.9447 -1.9510 -1.6911 -1.8007 -1.7294 -1.9423
 -1.9558 -1.8265 -1.7187 -1.8810 -1.8572 -1.6954 -1.7523 -1.7829 -1.8975 -1.7963
 -1.9340 -1.7249 -1.9050 -1.6044 -1.6873 -1.6991 -1.8852 -1.9110 -1.6901 -1.9653
 -1.9431 -1.6853 -1.7137 -1.7065 -1.9196 -1.9516 -1.9017 -1.6954 -1.7110 -1.7424
 -1.7259 -1.8650 -1.7055 -1.7331 -1.6940 -1.6969 -1.6773

           DATA FOR GRAPH WRITTEN TO DISK

 **********************
 *                    *
 * JOB ENDED NORMALLY *
 *                    *
 **********************



 TOTAL JOB TIME:             0.88 SECONDS

 == MOPAC DONE ==
