 *******************************************************************************
 ** Site#: 34139        For non-commercial use only    Version 20.015L 64BITS **
 *******************************************************************************
 ** Cite this program as: MOPAC2016, Version: 20.015L, James J. P. Stewart,   **
 ** Stewart Computational Chemistry, web: HTTP://OpenMOPAC.net. Days left: 276**
 *******************************************************************************
 **                                                                           **
 **                                MOPAC2016                                  **
 **                                                                           **
 *******************************************************************************

                              PM7 CALCULATION RESULTS

 *******************************************************************************
 *  CALCULATION DONE:                                Tue Apr 14 21:12:34 2020  *
 *  PM7        - The PM7 Hamiltonian to be used
 *  QMMM       - Generate energies and gradients for use in MM codes
 *  DIPOLE     - PRINT DIPOLE INSTEAD OF ENERGY IN TRAJECTORIES
 *  GEO-OK     - OVERRIDE INTERATOMIC DISTANCE AND OTHER SAFETY CHECKS
 *
 *
 *
 *                 CHARGE ON SYSTEM = 0
 *
 *
 *
 *  LET        - OVERRIDE SOME SAFETY CHECKS
 *  XYZ        - CARTESIAN COORDINATE SYSTEM TO BE USED
 *  FORCE      - FORCE CALCULATION SPECIFIED
 *  1SCF       - DO 1 SCF AND THEN STOP 
 *  T=         - A TIME OF      2.0 MINUTES REQUESTED
 *  DUMP=N     - RESTART FILE WRITTEN EVERY  7200.000 SECONDS
 *  CUTOFF=    - CUTOFF FOR NDDO AND DIPOLE INTERACTIONS =  9.00A
 *  AUX        - OUTPUT AUXILIARY INFORMATION
 *  GRADIENTS  - ALL GRADIENTS TO BE PRINTED
 *  VECTORS    - FINAL EIGENVECTORS TO BE PRINTED
 *  EIGEN      - CONVERT LMO's INTO EIGENVECTORS
 *  LARGE      - EXPANDED OUTPUT TO BE PRINTED
 *  AIGOUT     - IN ARC FILE, INCLUDE AB-INITIO GEOMETRY
 *  GRAPH      - GENERATE FILE FOR GRAPHICS
 *  ALLVEC     - PRINT ALL EIGENVECTORS
 *  LOCALIZE   - LOCALIZED ORBITALS TO BE PRINTED
 *  PI         - BONDS MATRIX, SPLIT INTO SIGMA-PI-DELL COMPONENTS, TO BE PRINTED
 *******************************************************************************
PM7 XYZ T=2M 1SCF LOCALIZE AIGOUT GRAPH GRAPHF LARGE DIPOLE PI FORCE CUTOFF=9.0 AUX LET GRAD QMMM GEO-OK EIGEN VECTORS ALLVEC CHARGE=0
 Test System

   ATOM   CHEMICAL          X               Y               Z
  NUMBER   SYMBOL      (ANGSTROMS)     (ANGSTROMS)     (ANGSTROMS)
 
     1       C          3.57185700  *   0.56672400  *   0.55609400  *
     2       O          3.20022600  *  -0.23690900  *   1.42764300  *
     3       N          4.77239500  *   0.53998400  *  -0.03321700  *
     4       H          4.92543600  *   1.31346700  *  -0.74682300  *
     5       C          5.91663800  *  -0.12276900  *   0.52413900  *
     6       H          5.84027200  *  -0.33834500  *   1.58459100  *
     7       C          6.30236600  *  -1.48153200  *  -0.10478400  *
     8       H          5.51598400  *  -1.92114600  *  -0.65919200  *
     9       H          7.12855600  *  -1.55310200  *  -0.82235500  *
    10       C          6.64534500  *  -2.48775500  *   0.96686300  *
    11       C          5.56162300  *  -3.23641800  *   1.63974600  *
    12       H          4.47938800  *  -2.93401400  *   1.34421400  *
    13       C          5.89797200  *  -4.22926500  *   2.53336000  *
    14       H          5.18655100  *  -5.09113500  *   2.82460200  *
    15       C          7.24094700  *  -4.43593400  *   2.92944700  *
    16       H          7.41558400  *  -5.03081300  *   3.87921700  *
    17       C          7.99584000  *  -2.82981700  *   1.24806500  *
    18       H          8.89248100  *  -2.43081100  *   0.76648700  *
    19       C          8.25452500  *  -3.79637100  *   2.29051800  *
    20       H          9.34232300  *  -3.89758000  *   2.46136000  *
    21       O          6.57410300  *   4.13579600  *  -2.17957700  *
    22       H          5.75798700  *   4.09355100  *  -1.55928600  *
    23       H          6.64298300  *   3.15329200  *  -2.33193200  *
    24       O          2.92790700  *  -2.72097400  *   3.69310700  *
    25       H          2.33631900  *  -2.31258400  *   4.34812000  *
    26       H          2.95283400  *  -2.01168500  *   3.00040800  *
    27       O         11.36597800  *  -2.59970700  *   0.08233100  *
    28       H         12.10726700  *  -2.15064800  *  -0.39080300  *
    29       H         10.88767600  *  -1.80526100  *   0.45085500  *
    30       O          9.79190200  *  -1.55994100  *   3.03060200  *
    31       H         10.67548400  *  -2.02635300  *   3.08533500  *
    32       H          9.95048900  *  -0.99561000  *   2.18658800  *
    33       O         11.59403300  *  -5.24079600  *   1.07983800  *
    34       H         11.75529700  *  -4.36344100  *   0.71569000  *
    35       H         10.73137500  *  -5.37173500  *   0.61883400  *
    36       O          9.40633600  *  -3.06148100  *  -1.71441800  *
    37       H          9.91350200  *  -2.79802700  *  -1.01092400  *
    38       H          9.11770900  *  -2.33441600  *  -2.37804300  *
    39       O          4.68190700  *  -0.77818400  *  -3.86275900  *
    40       H          4.73268600  *   0.24133300  *  -3.67234300  *
    41       H          3.76199400  *  -0.94922700  *  -3.94830500  *
    42       O          6.83864200  *  -6.68610700  *   0.08746500  *
    43       H          7.78625700  *  -6.64874900  *  -0.29011400  *
    44       H          6.90197700  *  -6.04394900  *   0.91485200  *
    45       O          7.82543900  *  -0.04033600  *   3.97192500  *
    46       H          8.59192900  *  -0.52426000  *   3.72446800  *
    47       H          7.14826900  *  -0.56504500  *   4.49913500  *
    48       O          4.62033700  *   1.13601600  *   4.81360700  *
    49       H          4.58049500  *   2.12073000  *   4.59273700  *
    50       H          5.19936400  *   0.89325500  *   4.08334000  *
    51       O          6.11255800  *  -2.82528200  *  -2.81114100  *
    52       H          6.99591300  *  -2.44231200  *  -2.77932400  *
    53       H          5.59262800  *  -2.00798900  *  -2.87590600  *
    54       O          5.00579000  *   1.83975700  *  -2.89085700  *
    55       H          4.76849100  *   2.28988200  *  -3.77669900  *
    56       H          4.61056400  *   2.43638200  *  -2.22456800  *
    57       O          2.32260800  *  -0.11941400  *   3.97820700  *
    58       H          2.76711100  *   0.09379900  *   3.14355200  *
    59       H          2.92497500  *   0.43958000  *   4.64497200  *
    60       O         11.59164800  *  -3.65345900  *   3.25404600  *
    61       H         12.30915100  *  -3.02388700  *   3.14567300  *
    62       H         11.52911800  *  -4.07399400  *   2.38065300  *
    63       O          3.85658500  *  -5.20143100  *   5.13212000  *
    64       H          3.64386500  *  -4.37621300  *   4.77455500  *
    65       H          4.62527500  *  -4.96718100  *   5.67584600  *
    66       O          7.96777800  *  -6.52177900  *   5.91951900  *
    67       H          8.00250100  *  -5.61232700  *   5.55617300  *
    68       H          7.59715500  *  -6.41686100  *   6.81441700  *
    69       H          2.79183700  *   1.23916800  *   0.19903900  *
    70       H          6.74713400  *   0.56287500  *   0.35601100  *
 


          CARTESIAN COORDINATES 

    NO.       ATOM           X           Y           Z

     1         C          3.5719      0.5667      0.5561
     2         O          3.2002     -0.2369      1.4276
     3         N          4.7724      0.5400     -0.0332
     4         H          4.9254      1.3135     -0.7468
     5         C          5.9166     -0.1228      0.5241
     6         H          5.8403     -0.3383      1.5846
     7         C          6.3024     -1.4815     -0.1048
     8         H          5.5160     -1.9211     -0.6592
     9         H          7.1286     -1.5531     -0.8224
    10         C          6.6453     -2.4878      0.9669
    11         C          5.5616     -3.2364      1.6397
    12         H          4.4794     -2.9340      1.3442
    13         C          5.8980     -4.2293      2.5334
    14         H          5.1866     -5.0911      2.8246
    15         C          7.2409     -4.4359      2.9294
    16         H          7.4156     -5.0308      3.8792
    17         C          7.9958     -2.8298      1.2481
    18         H          8.8925     -2.4308      0.7665
    19         C          8.2545     -3.7964      2.2905
    20         H          9.3423     -3.8976      2.4614
    21         O          6.5741      4.1358     -2.1796
    22         H          5.7580      4.0936     -1.5593
    23         H          6.6430      3.1533     -2.3319
    24         O          2.9279     -2.7210      3.6931
    25         H          2.3363     -2.3126      4.3481
    26         H          2.9528     -2.0117      3.0004
    27         O         11.3660     -2.5997      0.0823
    28         H         12.1073     -2.1506     -0.3908
    29         H         10.8877     -1.8053      0.4509
    30         O          9.7919     -1.5599      3.0306
    31         H         10.6755     -2.0264      3.0853
    32         H          9.9505     -0.9956      2.1866
    33         O         11.5940     -5.2408      1.0798
    34         H         11.7553     -4.3634      0.7157
    35         H         10.7314     -5.3717      0.6188
    36         O          9.4063     -3.0615     -1.7144
    37         H          9.9135     -2.7980     -1.0109
    38         H          9.1177     -2.3344     -2.3780
    39         O          4.6819     -0.7782     -3.8628
    40         H          4.7327      0.2413     -3.6723
    41         H          3.7620     -0.9492     -3.9483
    42         O          6.8386     -6.6861      0.0875
    43         H          7.7863     -6.6487     -0.2901
    44         H          6.9020     -6.0439      0.9149
    45         O          7.8254     -0.0403      3.9719
    46         H          8.5919     -0.5243      3.7245
    47         H          7.1483     -0.5650      4.4991
    48         O          4.6203      1.1360      4.8136
    49         H          4.5805      2.1207      4.5927
    50         H          5.1994      0.8933      4.0833
    51         O          6.1126     -2.8253     -2.8111
    52         H          6.9959     -2.4423     -2.7793
    53         H          5.5926     -2.0080     -2.8759
    54         O          5.0058      1.8398     -2.8909
    55         H          4.7685      2.2899     -3.7767
    56         H          4.6106      2.4364     -2.2246
    57         O          2.3226     -0.1194      3.9782
    58         H          2.7671      0.0938      3.1436
    59         H          2.9250      0.4396      4.6450
    60         O         11.5916     -3.6535      3.2540
    61         H         12.3092     -3.0239      3.1457
    62         H         11.5291     -4.0740      2.3807
    63         O          3.8566     -5.2014      5.1321
    64         H          3.6439     -4.3762      4.7746
    65         H          4.6253     -4.9672      5.6758
    66         O          7.9678     -6.5218      5.9195
    67         H          8.0025     -5.6123      5.5562
    68         H          7.5972     -6.4169      6.8144
    69         H          2.7918      1.2392      0.1990
    70         H          6.7471      0.5629      0.3560

 General Reference for PM7:
 "Optimization of Parameters for Semiempirical Methods VI: More Modifications to the 
 NDDO Approximations and Re-optimization of Parameters", J. J. P. Stewart, J. Mol. Mod., 1:32, 19 (2013)
 http://www.springerlink.com/openurl.asp?genre=article&id=doi:10.1007/s00894-012-1667-x

           Empirical Formula: C9 H43 N O17  =    70 atoms



      MOLECULAR POINT GROUP   :   C1  


      RHF CALCULATION, NO. OF DOUBLY OCCUPIED LEVELS = 93


 -------------------------------------------------------------------------------
 PM7 XYZ T=2M 1SCF LOCALIZE AIGOUT GRAPH GRAPHF LARGE DIPOLE PI FORCE CUTOFF=9.0 AUX LET GRAD QMMM GEO-OK EIGEN VECTORS ALLVEC CHARGE=0
 Test System



     1SCF WAS SPECIFIED, SO BFGS WAS NOT USED                 
     SCF FIELD WAS ACHIEVED                                   


                              PM7 CALCULATION
                                                       MOPAC2016 (Version: 20.015L)
                                                       Tue Apr 14 21:12:34 2020
                                                       No. of days remaining = 276




          FINAL HEAT OF FORMATION =      -1228.34248 KCAL/MOL =   -5139.38493 KJ/MOL


          TOTAL ENERGY            =      -6907.98524 EV
          ELECTRONIC ENERGY       =     -54177.28480 EV  POINT GROUP:     C1  
          CORE-CORE REPULSION     =      47269.29957 EV
          COSMO AREA              =        512.95 SQUARE ANGSTROMS
          COSMO VOLUME            =        648.02 CUBIC ANGSTROMS

          GRADIENT NORM           =        305.71818 = 36.54031 PER ATOM
          IONIZATION POTENTIAL    =         10.004249 EV
          HOMO LUMO ENERGIES (EV) =        -10.004 -0.551
          NO. OF FILLED LEVELS    =         93
          MOLECULAR WEIGHT        =        437.4352

          MOLECULAR DIMENSIONS (Angstroms)

            Atom       Atom       Distance
            H    68    H    55    13.99930
            O    57    H    28    10.90640
            H    49    O    42     8.15385


          SCF CALCULATIONS        =          1
 
          WALL-CLOCK TIME         =          0.203 SECONDS
          COMPUTATION TIME        =          0.188 SECONDS

          LARGEST ATOMIC GRADIENTS

          Atom     Label                     Cartesian Gradients           Cartesian Coordinates       |Gradient|
                                           X          Y          Z        X          Y          Z

             1       C                  48.973     41.406    -31.090    3.57186    0.56672    0.55609     71.270
            30       O                 -48.378    -10.647     48.057    9.79190   -1.55994    3.03060     69.016
            42       O                 -44.521    -35.165    -30.633    6.83864   -6.68611    0.08747     64.476
            57       O                 -39.361    -40.334    -30.341    2.32261   -0.11941    3.97821     64.005
            21       O                  41.928     41.228    -25.220    6.57410    4.13580   -2.17958     63.983
            10       C                 -13.744     41.840    -39.165    6.64534   -2.48775    0.96686     58.936
            39       O                 -11.619    -55.293    -13.286    4.68191   -0.77818   -3.86276     58.042
            19       C                 -18.185    -37.575     40.091    8.25452   -3.79637    2.29052     57.878
            36       O                  26.669    -25.906     40.868    9.40634   -3.06148   -1.71442     55.250
            17       C                  50.773     11.926    -17.760    7.99584   -2.82982    1.24806     55.096
            44       H                   9.634     31.202     39.409    6.90198   -6.04395    0.91485     51.181
            11       C                 -22.114    -33.973     29.723    5.56162   -3.23642    1.63975     50.266
            59       H                  25.886     31.506     29.299    2.92497    0.43958    4.64497     50.211
            38       H                 -18.101     31.722    -32.263    9.11771   -2.33442   -2.37804     48.732



       FINAL  POINT  AND  DERIVATIVES

   PARAMETER     ATOM    TYPE            VALUE        GRADIENT
      1          1  C    CARTESIAN X     3.571857     48.973204  KCAL/ANGSTROM
      2          1  C    CARTESIAN Y     0.566724     41.405754  KCAL/ANGSTROM
      3          1  C    CARTESIAN Z     0.556094    -31.089987  KCAL/ANGSTROM
      4          2  O    CARTESIAN X     3.200226    -25.761673  KCAL/ANGSTROM
      5          2  O    CARTESIAN Y    -0.236909    -19.624947  KCAL/ANGSTROM
      6          2  O    CARTESIAN Z     1.427643      7.711399  KCAL/ANGSTROM
      7          3  N    CARTESIAN X     4.772395      6.215036  KCAL/ANGSTROM
      8          3  N    CARTESIAN Y     0.539984    -38.499595  KCAL/ANGSTROM
      9          3  N    CARTESIAN Z    -0.033217     27.494110  KCAL/ANGSTROM
     10          4  H    CARTESIAN X     4.925436    -13.631763  KCAL/ANGSTROM
     11          4  H    CARTESIAN Y     1.313467     26.661488  KCAL/ANGSTROM
     12          4  H    CARTESIAN Z    -0.746823    -12.545450  KCAL/ANGSTROM
     13          5  C    CARTESIAN X     5.916638    -28.210981  KCAL/ANGSTROM
     14          5  C    CARTESIAN Y    -0.122769     19.032519  KCAL/ANGSTROM
     15          5  C    CARTESIAN Z     0.524139     18.870376  KCAL/ANGSTROM
     16          6  H    CARTESIAN X     5.840272      9.784549  KCAL/ANGSTROM
     17          6  H    CARTESIAN Y    -0.338345     -6.693691  KCAL/ANGSTROM
     18          6  H    CARTESIAN Z     1.584591    -21.503079  KCAL/ANGSTROM
     19          7  C    CARTESIAN X     6.302366    -12.140580  KCAL/ANGSTROM
     20          7  C    CARTESIAN Y    -1.481532     20.087887  KCAL/ANGSTROM
     21          7  C    CARTESIAN Z    -0.104784    -22.524120  KCAL/ANGSTROM
     22          8  H    CARTESIAN X     5.515984     33.600841  KCAL/ANGSTROM
     23          8  H    CARTESIAN Y    -1.921146      6.434691  KCAL/ANGSTROM
     24          8  H    CARTESIAN Z    -0.659192     20.210927  KCAL/ANGSTROM
     25          9  H    CARTESIAN X     7.128556     -5.977820  KCAL/ANGSTROM
     26          9  H    CARTESIAN Y    -1.553102    -19.811588  KCAL/ANGSTROM
     27          9  H    CARTESIAN Z    -0.822355      6.034017  KCAL/ANGSTROM
     28         10  C    CARTESIAN X     6.645345    -13.743710  KCAL/ANGSTROM
     29         10  C    CARTESIAN Y    -2.487755     41.840306  KCAL/ANGSTROM
     30         10  C    CARTESIAN Z     0.966863    -39.165318  KCAL/ANGSTROM
     31         11  C    CARTESIAN X     5.561623    -22.113891  KCAL/ANGSTROM
     32         11  C    CARTESIAN Y    -3.236418    -33.973151  KCAL/ANGSTROM
     33         11  C    CARTESIAN Z     1.639746     29.722847  KCAL/ANGSTROM
     34         12  H    CARTESIAN X     4.479388    -37.385619  KCAL/ANGSTROM
     35         12  H    CARTESIAN Y    -2.934014     17.944849  KCAL/ANGSTROM
     36         12  H    CARTESIAN Z     1.344214    -14.218744  KCAL/ANGSTROM
     37         13  C    CARTESIAN X     5.897972     14.127236  KCAL/ANGSTROM
     38         13  C    CARTESIAN Y    -4.229265     25.889921  KCAL/ANGSTROM
     39         13  C    CARTESIAN Z     2.533360     14.073351  KCAL/ANGSTROM
     40         14  H    CARTESIAN X     5.186551     -8.997463  KCAL/ANGSTROM
     41         14  H    CARTESIAN Y    -5.091135    -37.438569  KCAL/ANGSTROM
     42         14  H    CARTESIAN Z     2.824602     -0.121601  KCAL/ANGSTROM
     43         15  C    CARTESIAN X     7.240947      7.363102  KCAL/ANGSTROM
     44         15  C    CARTESIAN Y    -4.435934      5.441082  KCAL/ANGSTROM
     45         15  C    CARTESIAN Z     2.929447    -32.197640  KCAL/ANGSTROM
     46         16  H    CARTESIAN X     7.415584      1.380267  KCAL/ANGSTROM
     47         16  H    CARTESIAN Y    -5.030813     -3.973150  KCAL/ANGSTROM
     48         16  H    CARTESIAN Z     3.879217     28.603740  KCAL/ANGSTROM
     49         17  C    CARTESIAN X     7.995840     50.772980  KCAL/ANGSTROM
     50         17  C    CARTESIAN Y    -2.829817     11.926197  KCAL/ANGSTROM
     51         17  C    CARTESIAN Z     1.248065    -17.760210  KCAL/ANGSTROM
     52         18  H    CARTESIAN X     8.892481     17.189109  KCAL/ANGSTROM
     53         18  H    CARTESIAN Y    -2.430811     -2.550648  KCAL/ANGSTROM
     54         18  H    CARTESIAN Z     0.766487      2.936056  KCAL/ANGSTROM
     55         19  C    CARTESIAN X     8.254525    -18.184922  KCAL/ANGSTROM
     56         19  C    CARTESIAN Y    -3.796371    -37.574505  KCAL/ANGSTROM
     57         19  C    CARTESIAN Z     2.290518     40.091105  KCAL/ANGSTROM
     58         20  H    CARTESIAN X     9.342323     13.446129  KCAL/ANGSTROM
     59         20  H    CARTESIAN Y    -3.897580     11.423706  KCAL/ANGSTROM
     60         20  H    CARTESIAN Z     2.461360    -14.315085  KCAL/ANGSTROM
     61         21  O    CARTESIAN X     6.574103     41.928411  KCAL/ANGSTROM
     62         21  O    CARTESIAN Y     4.135796     41.228010  KCAL/ANGSTROM
     63         21  O    CARTESIAN Z    -2.179577    -25.219780  KCAL/ANGSTROM
     64         22  H    CARTESIAN X     5.757987    -31.245141  KCAL/ANGSTROM
     65         22  H    CARTESIAN Y     4.093551    -20.951359  KCAL/ANGSTROM
     66         22  H    CARTESIAN Z    -1.559286     16.718759  KCAL/ANGSTROM
     67         23  H    CARTESIAN X     6.642983    -12.722663  KCAL/ANGSTROM
     68         23  H    CARTESIAN Y     3.153292    -20.688614  KCAL/ANGSTROM
     69         23  H    CARTESIAN Z    -2.331932      8.805581  KCAL/ANGSTROM
     70         24  O    CARTESIAN X     2.927907      5.669701  KCAL/ANGSTROM
     71         24  O    CARTESIAN Y    -2.720974    -13.893723  KCAL/ANGSTROM
     72         24  O    CARTESIAN Z     3.693107      8.222473  KCAL/ANGSTROM
     73         25  H    CARTESIAN X     2.336319     -3.253247  KCAL/ANGSTROM
     74         25  H    CARTESIAN Y    -2.312584     -0.477388  KCAL/ANGSTROM
     75         25  H    CARTESIAN Z     4.348120      2.960883  KCAL/ANGSTROM
     76         26  H    CARTESIAN X     2.952834     -3.779651  KCAL/ANGSTROM
     77         26  H    CARTESIAN Y    -2.011685     12.583311  KCAL/ANGSTROM
     78         26  H    CARTESIAN Z     3.000408    -11.298284  KCAL/ANGSTROM
     79         27  O    CARTESIAN X    11.365978     -0.528743  KCAL/ANGSTROM
     80         27  O    CARTESIAN Y    -2.599707    -33.750347  KCAL/ANGSTROM
     81         27  O    CARTESIAN Z     0.082331      0.927819  KCAL/ANGSTROM
     82         28  H    CARTESIAN X    12.107267      4.964564  KCAL/ANGSTROM
     83         28  H    CARTESIAN Y    -2.150648     17.411041  KCAL/ANGSTROM
     84         28  H    CARTESIAN Z    -0.390803     -1.418026  KCAL/ANGSTROM
     85         29  H    CARTESIAN X    10.887676     -4.275629  KCAL/ANGSTROM
     86         29  H    CARTESIAN Y    -1.805261     17.268794  KCAL/ANGSTROM
     87         29  H    CARTESIAN Z     0.450855     -1.367508  KCAL/ANGSTROM
     88         30  O    CARTESIAN X     9.791902    -48.377617  KCAL/ANGSTROM
     89         30  O    CARTESIAN Y    -1.559941    -10.647238  KCAL/ANGSTROM
     90         30  O    CARTESIAN Z     3.030602     48.056860  KCAL/ANGSTROM
     91         31  H    CARTESIAN X    10.675484     29.312536  KCAL/ANGSTROM
     92         31  H    CARTESIAN Y    -2.026353      1.100224  KCAL/ANGSTROM
     93         31  H    CARTESIAN Z     3.085335    -16.373801  KCAL/ANGSTROM
     94         32  H    CARTESIAN X     9.950489     15.880200  KCAL/ANGSTROM
     95         32  H    CARTESIAN Y    -0.995610     15.202458  KCAL/ANGSTROM
     96         32  H    CARTESIAN Z     2.186588    -34.446914  KCAL/ANGSTROM
     97         33  O    CARTESIAN X    11.594033     18.609389  KCAL/ANGSTROM
     98         33  O    CARTESIAN Y    -5.240796    -20.749036  KCAL/ANGSTROM
     99         33  O    CARTESIAN Z     1.079838     14.198506  KCAL/ANGSTROM
    100         34  H    CARTESIAN X    11.755297    -14.877841  KCAL/ANGSTROM
    101         34  H    CARTESIAN Y    -4.363441     -5.629976  KCAL/ANGSTROM
    102         34  H    CARTESIAN Z     0.715690      4.946981  KCAL/ANGSTROM
    103         35  H    CARTESIAN X    10.731375     -2.210762  KCAL/ANGSTROM
    104         35  H    CARTESIAN Y    -5.371735     15.813645  KCAL/ANGSTROM
    105         35  H    CARTESIAN Z     0.618834     -9.513622  KCAL/ANGSTROM
    106         36  O    CARTESIAN X     9.406336     26.668527  KCAL/ANGSTROM
    107         36  O    CARTESIAN Y    -3.061481    -25.906000  KCAL/ANGSTROM
    108         36  O    CARTESIAN Z    -1.714418     40.868491  KCAL/ANGSTROM
    109         37  H    CARTESIAN X     9.913502    -15.043006  KCAL/ANGSTROM
    110         37  H    CARTESIAN Y    -2.798027     -2.834830  KCAL/ANGSTROM
    111         37  H    CARTESIAN Z    -1.010924     -5.980999  KCAL/ANGSTROM
    112         38  H    CARTESIAN X     9.117709    -18.100864  KCAL/ANGSTROM
    113         38  H    CARTESIAN Y    -2.334416     31.721629  KCAL/ANGSTROM
    114         38  H    CARTESIAN Z    -2.378043    -32.263024  KCAL/ANGSTROM
    115         39  O    CARTESIAN X     4.681907    -11.618660  KCAL/ANGSTROM
    116         39  O    CARTESIAN Y    -0.778184    -55.293023  KCAL/ANGSTROM
    117         39  O    CARTESIAN Z    -3.862759    -13.285827  KCAL/ANGSTROM
    118         40  H    CARTESIAN X     4.732686     -1.518647  KCAL/ANGSTROM
    119         40  H    CARTESIAN Y     0.241333     45.775632  KCAL/ANGSTROM
    120         40  H    CARTESIAN Z    -3.672343      2.133390  KCAL/ANGSTROM
    121         41  H    CARTESIAN X     3.761994      8.203707  KCAL/ANGSTROM
    122         41  H    CARTESIAN Y    -0.949227      7.186212  KCAL/ANGSTROM
    123         41  H    CARTESIAN Z    -3.948305      1.330430  KCAL/ANGSTROM
    124         42  O    CARTESIAN X     6.838642    -44.521141  KCAL/ANGSTROM
    125         42  O    CARTESIAN Y    -6.686107    -35.164825  KCAL/ANGSTROM
    126         42  O    CARTESIAN Z     0.087465    -30.633350  KCAL/ANGSTROM
    127         43  H    CARTESIAN X     7.786257     36.020950  KCAL/ANGSTROM
    128         43  H    CARTESIAN Y    -6.648749      2.142937  KCAL/ANGSTROM
    129         43  H    CARTESIAN Z    -0.290114    -10.260513  KCAL/ANGSTROM
    130         44  H    CARTESIAN X     6.901977      9.634195  KCAL/ANGSTROM
    131         44  H    CARTESIAN Y    -6.043949     31.202455  KCAL/ANGSTROM
    132         44  H    CARTESIAN Z     0.914852     39.408847  KCAL/ANGSTROM
    133         45  O    CARTESIAN X     7.825439     35.267470  KCAL/ANGSTROM
    134         45  O    CARTESIAN Y    -0.040336     -6.659322  KCAL/ANGSTROM
    135         45  O    CARTESIAN Z     3.971925    -15.945991  KCAL/ANGSTROM
    136         46  H    CARTESIAN X     8.591929      1.179072  KCAL/ANGSTROM
    137         46  H    CARTESIAN Y    -0.524260     13.685833  KCAL/ANGSTROM
    138         46  H    CARTESIAN Z     3.724468     -3.733198  KCAL/ANGSTROM
    139         47  H    CARTESIAN X     7.148269    -28.826557  KCAL/ANGSTROM
    140         47  H    CARTESIAN Y    -0.565045     -8.866909  KCAL/ANGSTROM
    141         47  H    CARTESIAN Z     4.499135     17.277178  KCAL/ANGSTROM
    142         48  O    CARTESIAN X     4.620337      2.825290  KCAL/ANGSTROM
    143         48  O    CARTESIAN Y     1.136016    -33.873510  KCAL/ANGSTROM
    144         48  O    CARTESIAN Z     4.813607     19.320446  KCAL/ANGSTROM
    145         49  H    CARTESIAN X     4.580495      5.149727  KCAL/ANGSTROM
    146         49  H    CARTESIAN Y     2.120730     19.993723  KCAL/ANGSTROM
    147         49  H    CARTESIAN Z     4.592737    -16.737714  KCAL/ANGSTROM
    148         50  H    CARTESIAN X     5.199364     -3.379676  KCAL/ANGSTROM
    149         50  H    CARTESIAN Y     0.893255     15.504549  KCAL/ANGSTROM
    150         50  H    CARTESIAN Z     4.083340     -1.646920  KCAL/ANGSTROM
    151         51  O    CARTESIAN X     6.112558     -4.354801  KCAL/ANGSTROM
    152         51  O    CARTESIAN Y    -2.825282    -25.689992  KCAL/ANGSTROM
    153         51  O    CARTESIAN Z    -2.811141     -2.290055  KCAL/ANGSTROM
    154         52  H    CARTESIAN X     6.995913     -0.569284  KCAL/ANGSTROM
    155         52  H    CARTESIAN Y    -2.442312     15.740003  KCAL/ANGSTROM
    156         52  H    CARTESIAN Z    -2.779324      0.401471  KCAL/ANGSTROM
    157         53  H    CARTESIAN X     5.592628      9.924025  KCAL/ANGSTROM
    158         53  H    CARTESIAN Y    -2.007989     10.369370  KCAL/ANGSTROM
    159         53  H    CARTESIAN Z    -2.875906      8.685460  KCAL/ANGSTROM
    160         54  O    CARTESIAN X     5.005790     13.643640  KCAL/ANGSTROM
    161         54  O    CARTESIAN Y     1.839757    -17.843126  KCAL/ANGSTROM
    162         54  O    CARTESIAN Z    -2.890857     28.615083  KCAL/ANGSTROM
    163         55  H    CARTESIAN X     4.768491    -13.965845  KCAL/ANGSTROM
    164         55  H    CARTESIAN Y     2.289882     12.471767  KCAL/ANGSTROM
    165         55  H    CARTESIAN Z    -3.776699    -27.102184  KCAL/ANGSTROM
    166         56  H    CARTESIAN X     4.610564      6.180056  KCAL/ANGSTROM
    167         56  H    CARTESIAN Y     2.436382      4.925874  KCAL/ANGSTROM
    168         56  H    CARTESIAN Z    -2.224568      6.858907  KCAL/ANGSTROM
    169         57  O    CARTESIAN X     2.322608    -39.360639  KCAL/ANGSTROM
    170         57  O    CARTESIAN Y    -0.119414    -40.333781  KCAL/ANGSTROM
    171         57  O    CARTESIAN Z     3.978207    -30.341152  KCAL/ANGSTROM
    172         58  H    CARTESIAN X     2.767111     10.850098  KCAL/ANGSTROM
    173         58  H    CARTESIAN Y     0.093799     10.922649  KCAL/ANGSTROM
    174         58  H    CARTESIAN Z     3.143552      1.459052  KCAL/ANGSTROM
    175         59  H    CARTESIAN X     2.924975     25.885658  KCAL/ANGSTROM
    176         59  H    CARTESIAN Y     0.439580     31.505690  KCAL/ANGSTROM
    177         59  H    CARTESIAN Z     4.644972     29.299034  KCAL/ANGSTROM
    178         60  O    CARTESIAN X    11.591648     -0.902618  KCAL/ANGSTROM
    179         60  O    CARTESIAN Y    -3.653459    -26.382292  KCAL/ANGSTROM
    180         60  O    CARTESIAN Z     3.254046     13.644712  KCAL/ANGSTROM
    181         61  H    CARTESIAN X    12.309151     -3.884801  KCAL/ANGSTROM
    182         61  H    CARTESIAN Y    -3.023887      7.643552  KCAL/ANGSTROM
    183         61  H    CARTESIAN Z     3.145673     -8.612775  KCAL/ANGSTROM
    184         62  H    CARTESIAN X    11.529118      1.861317  KCAL/ANGSTROM
    185         62  H    CARTESIAN Y    -4.073994     17.466568  KCAL/ANGSTROM
    186         62  H    CARTESIAN Z     2.380653     -9.007873  KCAL/ANGSTROM
    187         63  O    CARTESIAN X     3.856585    -20.257645  KCAL/ANGSTROM
    188         63  O    CARTESIAN Y    -5.201431     10.149822  KCAL/ANGSTROM
    189         63  O    CARTESIAN Z     5.132120    -21.359821  KCAL/ANGSTROM
    190         64  H    CARTESIAN X     3.643865     15.658675  KCAL/ANGSTROM
    191         64  H    CARTESIAN Y    -4.376213    -21.696547  KCAL/ANGSTROM
    192         64  H    CARTESIAN Z     4.774555     21.267857  KCAL/ANGSTROM
    193         65  H    CARTESIAN X     4.625275      4.584959  KCAL/ANGSTROM
    194         65  H    CARTESIAN Y    -4.967181     11.146397  KCAL/ANGSTROM
    195         65  H    CARTESIAN Z     5.675846      3.023752  KCAL/ANGSTROM
    196         66  O    CARTESIAN X     7.967778      7.464857  KCAL/ANGSTROM
    197         66  O    CARTESIAN Y    -6.521779    -21.477859  KCAL/ANGSTROM
    198         66  O    CARTESIAN Z     5.919519     -9.987815  KCAL/ANGSTROM
    199         67  H    CARTESIAN X     8.002501     -3.531922  KCAL/ANGSTROM
    200         67  H    CARTESIAN Y    -5.612327     14.153462  KCAL/ANGSTROM
    201         67  H    CARTESIAN Z     5.556173     -0.222460  KCAL/ANGSTROM
    202         68  H    CARTESIAN X     7.597155     -4.861838  KCAL/ANGSTROM
    203         68  H    CARTESIAN Y    -6.416861      6.490313  KCAL/ANGSTROM
    204         68  H    CARTESIAN Z     6.814417     10.367493  KCAL/ANGSTROM
    205         69  H    CARTESIAN X     2.791837      5.276755  KCAL/ANGSTROM
    206         69  H    CARTESIAN Y     1.239168    -10.384709  KCAL/ANGSTROM
    207         69  H    CARTESIAN Z     0.199039      6.687784  KCAL/ANGSTROM
    208         70  H    CARTESIAN X     6.747134    -23.115102  KCAL/ANGSTROM
    209         70  H    CARTESIAN Y     0.562875     -9.380059  KCAL/ANGSTROM
    210         70  H    CARTESIAN Z     0.356011     -6.488740  KCAL/ANGSTROM




   ATOM   CHEMICAL          X               Y               Z
  NUMBER   SYMBOL      (ANGSTROMS)     (ANGSTROMS)     (ANGSTROMS)
 
     1       C          3.57185700  *   0.56672400  *   0.55609400  *
     2       O          3.20022600  *  -0.23690900  *   1.42764300  *
     3       N          4.77239500  *   0.53998400  *  -0.03321700  *
     4       H          4.92543600  *   1.31346700  *  -0.74682300  *
     5       C          5.91663800  *  -0.12276900  *   0.52413900  *
     6       H          5.84027200  *  -0.33834500  *   1.58459100  *
     7       C          6.30236600  *  -1.48153200  *  -0.10478400  *
     8       H          5.51598400  *  -1.92114600  *  -0.65919200  *
     9       H          7.12855600  *  -1.55310200  *  -0.82235500  *
    10       C          6.64534500  *  -2.48775500  *   0.96686300  *
    11       C          5.56162300  *  -3.23641800  *   1.63974600  *
    12       H          4.47938800  *  -2.93401400  *   1.34421400  *
    13       C          5.89797200  *  -4.22926500  *   2.53336000  *
    14       H          5.18655100  *  -5.09113500  *   2.82460200  *
    15       C          7.24094700  *  -4.43593400  *   2.92944700  *
    16       H          7.41558400  *  -5.03081300  *   3.87921700  *
    17       C          7.99584000  *  -2.82981700  *   1.24806500  *
    18       H          8.89248100  *  -2.43081100  *   0.76648700  *
    19       C          8.25452500  *  -3.79637100  *   2.29051800  *
    20       H          9.34232300  *  -3.89758000  *   2.46136000  *
    21       O          6.57410300  *   4.13579600  *  -2.17957700  *
    22       H          5.75798700  *   4.09355100  *  -1.55928600  *
    23       H          6.64298300  *   3.15329200  *  -2.33193200  *
    24       O          2.92790700  *  -2.72097400  *   3.69310700  *
    25       H          2.33631900  *  -2.31258400  *   4.34812000  *
    26       H          2.95283400  *  -2.01168500  *   3.00040800  *
    27       O         11.36597800  *  -2.59970700  *   0.08233100  *
    28       H         12.10726700  *  -2.15064800  *  -0.39080300  *
    29       H         10.88767600  *  -1.80526100  *   0.45085500  *
    30       O          9.79190200  *  -1.55994100  *   3.03060200  *
    31       H         10.67548400  *  -2.02635300  *   3.08533500  *
    32       H          9.95048900  *  -0.99561000  *   2.18658800  *
    33       O         11.59403300  *  -5.24079600  *   1.07983800  *
    34       H         11.75529700  *  -4.36344100  *   0.71569000  *
    35       H         10.73137500  *  -5.37173500  *   0.61883400  *
    36       O          9.40633600  *  -3.06148100  *  -1.71441800  *
    37       H          9.91350200  *  -2.79802700  *  -1.01092400  *
    38       H          9.11770900  *  -2.33441600  *  -2.37804300  *
    39       O          4.68190700  *  -0.77818400  *  -3.86275900  *
    40       H          4.73268600  *   0.24133300  *  -3.67234300  *
    41       H          3.76199400  *  -0.94922700  *  -3.94830500  *
    42       O          6.83864200  *  -6.68610700  *   0.08746500  *
    43       H          7.78625700  *  -6.64874900  *  -0.29011400  *
    44       H          6.90197700  *  -6.04394900  *   0.91485200  *
    45       O          7.82543900  *  -0.04033600  *   3.97192500  *
    46       H          8.59192900  *  -0.52426000  *   3.72446800  *
    47       H          7.14826900  *  -0.56504500  *   4.49913500  *
    48       O          4.62033700  *   1.13601600  *   4.81360700  *
    49       H          4.58049500  *   2.12073000  *   4.59273700  *
    50       H          5.19936400  *   0.89325500  *   4.08334000  *
    51       O          6.11255800  *  -2.82528200  *  -2.81114100  *
    52       H          6.99591300  *  -2.44231200  *  -2.77932400  *
    53       H          5.59262800  *  -2.00798900  *  -2.87590600  *
    54       O          5.00579000  *   1.83975700  *  -2.89085700  *
    55       H          4.76849100  *   2.28988200  *  -3.77669900  *
    56       H          4.61056400  *   2.43638200  *  -2.22456800  *
    57       O          2.32260800  *  -0.11941400  *   3.97820700  *
    58       H          2.76711100  *   0.09379900  *   3.14355200  *
    59       H          2.92497500  *   0.43958000  *   4.64497200  *
    60       O         11.59164800  *  -3.65345900  *   3.25404600  *
    61       H         12.30915100  *  -3.02388700  *   3.14567300  *
    62       H         11.52911800  *  -4.07399400  *   2.38065300  *
    63       O          3.85658500  *  -5.20143100  *   5.13212000  *
    64       H          3.64386500  *  -4.37621300  *   4.77455500  *
    65       H          4.62527500  *  -4.96718100  *   5.67584600  *
    66       O          7.96777800  *  -6.52177900  *   5.91951900  *
    67       H          8.00250100  *  -5.61232700  *   5.55617300  *
    68       H          7.59715500  *  -6.41686100  *   6.81441700  *
    69       H          2.79183700  *   1.23916800  *   0.19903900  *
    70       H          6.74713400  *   0.56287500  *   0.35601100  *

                             CARTESIAN COORDINATES

   1    C        3.571857000     0.566724000     0.556094000
   2    O        3.200226000    -0.236909000     1.427643000
   3    N        4.772395000     0.539984000    -0.033217000
   4    H        4.925436000     1.313467000    -0.746823000
   5    C        5.916638000    -0.122769000     0.524139000
   6    H        5.840272000    -0.338345000     1.584591000
   7    C        6.302366000    -1.481532000    -0.104784000
   8    H        5.515984000    -1.921146000    -0.659192000
   9    H        7.128556000    -1.553102000    -0.822355000
  10    C        6.645345000    -2.487755000     0.966863000
  11    C        5.561623000    -3.236418000     1.639746000
  12    H        4.479388000    -2.934014000     1.344214000
  13    C        5.897972000    -4.229265000     2.533360000
  14    H        5.186551000    -5.091135000     2.824602000
  15    C        7.240947000    -4.435934000     2.929447000
  16    H        7.415584000    -5.030813000     3.879217000
  17    C        7.995840000    -2.829817000     1.248065000
  18    H        8.892481000    -2.430811000     0.766487000
  19    C        8.254525000    -3.796371000     2.290518000
  20    H        9.342323000    -3.897580000     2.461360000
  21    O        6.574103000     4.135796000    -2.179577000
  22    H        5.757987000     4.093551000    -1.559286000
  23    H        6.642983000     3.153292000    -2.331932000
  24    O        2.927907000    -2.720974000     3.693107000
  25    H        2.336319000    -2.312584000     4.348120000
  26    H        2.952834000    -2.011685000     3.000408000
  27    O       11.365978000    -2.599707000     0.082331000
  28    H       12.107267000    -2.150648000    -0.390803000
  29    H       10.887676000    -1.805261000     0.450855000
  30    O        9.791902000    -1.559941000     3.030602000
  31    H       10.675484000    -2.026353000     3.085335000
  32    H        9.950489000    -0.995610000     2.186588000
  33    O       11.594033000    -5.240796000     1.079838000
  34    H       11.755297000    -4.363441000     0.715690000
  35    H       10.731375000    -5.371735000     0.618834000
  36    O        9.406336000    -3.061481000    -1.714418000
  37    H        9.913502000    -2.798027000    -1.010924000
  38    H        9.117709000    -2.334416000    -2.378043000
  39    O        4.681907000    -0.778184000    -3.862759000
  40    H        4.732686000     0.241333000    -3.672343000
  41    H        3.761994000    -0.949227000    -3.948305000
  42    O        6.838642000    -6.686107000     0.087465000
  43    H        7.786257000    -6.648749000    -0.290114000
  44    H        6.901977000    -6.043949000     0.914852000
  45    O        7.825439000    -0.040336000     3.971925000
  46    H        8.591929000    -0.524260000     3.724468000
  47    H        7.148269000    -0.565045000     4.499135000
  48    O        4.620337000     1.136016000     4.813607000
  49    H        4.580495000     2.120730000     4.592737000
  50    H        5.199364000     0.893255000     4.083340000
  51    O        6.112558000    -2.825282000    -2.811141000
  52    H        6.995913000    -2.442312000    -2.779324000
  53    H        5.592628000    -2.007989000    -2.875906000
  54    O        5.005790000     1.839757000    -2.890857000
  55    H        4.768491000     2.289882000    -3.776699000
  56    H        4.610564000     2.436382000    -2.224568000
  57    O        2.322608000    -0.119414000     3.978207000
  58    H        2.767111000     0.093799000     3.143552000
  59    H        2.924975000     0.439580000     4.644972000
  60    O       11.591648000    -3.653459000     3.254046000
  61    H       12.309151000    -3.023887000     3.145673000
  62    H       11.529118000    -4.073994000     2.380653000
  63    O        3.856585000    -5.201431000     5.132120000
  64    H        3.643865000    -4.376213000     4.774555000
  65    H        4.625275000    -4.967181000     5.675846000
  66    O        7.967778000    -6.521779000     5.919519000
  67    H        8.002501000    -5.612327000     5.556173000
  68    H        7.597155000    -6.416861000     6.814417000
  69    H        2.791837000     1.239168000     0.199039000
  70    H        6.747134000     0.562875000     0.356011000


           Empirical Formula: C9 H43 N O17  =    70 atoms



      MOLECULAR POINT GROUP   :   C1  


                EIGENVECTORS  


   Root No.       1         2         3         4         5         6         7         8

                 1 A       2 A       3 A       4 A       5 A       6 A       7 A       8 A   

               -37.729   -31.835   -30.734   -30.715   -30.661   -30.331   -30.276   -30.226
  
  S   C    1    0.3086   -0.0021    0.0333   -0.0370    0.0308    0.0033    0.0277    0.0082
  Px  C    1    0.1953   -0.0006    0.0046   -0.0026    0.0034    0.0003   -0.0014    0.0013
  Py  C    1   -0.0012   -0.0003    0.0025    0.0141    0.0004   -0.0001   -0.0038    0.0007
  Pz  C    1   -0.0880    0.0005   -0.0050   -0.0120   -0.0024   -0.0003    0.0042   -0.0018
  S   O    2    0.0418   -0.0005    0.0144   -0.0447    0.0172    0.0018    0.0278    0.0024
  Px  O    2    0.0486   -0.0002    0.0025   -0.0087    0.0029    0.0004    0.0036    0.0006
  Py  O    2    0.0339   -0.0004    0.0084   -0.0143    0.0086    0.0007    0.0103    0.0019
  Pz  O    2   -0.0511    0.0005   -0.0088    0.0157   -0.0089   -0.0012   -0.0096   -0.0027
  S   N    3    0.8156   -0.0026    0.0261   -0.0211    0.0218    0.0020    0.0091    0.0069
  Px  N    3   -0.0332    0.0018   -0.0284    0.0094   -0.0240   -0.0027   -0.0174   -0.0072
  Py  N    3    0.0244   -0.0013    0.0194    0.0120    0.0147    0.0013    0.0087    0.0044
  Pz  N    3    0.0564    0.0001   -0.0033   -0.0187   -0.0010   -0.0001    0.0010   -0.0010
  S   H    4    0.2377   -0.0009    0.0132    0.0249    0.0084    0.0009    0.0035    0.0027
  S   C    5    0.2514    0.0058   -0.0833   -0.0066   -0.0665   -0.0062   -0.0428   -0.0201
  Px  C    5   -0.1391    0.0019   -0.0203    0.0093   -0.0168   -0.0018   -0.0094   -0.0043
  Py  C    5    0.0846   -0.0032    0.0387   -0.0035    0.0313    0.0014    0.0191    0.0083
  Pz  C    5   -0.0617    0.0001    0.0009   -0.0016    0.0016    0.0002    0.0035   -0.0019
  S   H    6    0.0826    0.0037   -0.0476   -0.0034   -0.0370   -0.0038   -0.0202   -0.0139
  S   C    7    0.0632    0.0133   -0.1613    0.0095   -0.1309   -0.0083   -0.0824   -0.0312
  Px  C    7   -0.0252    0.0023   -0.0128    0.0025   -0.0100   -0.0017   -0.0039    0.0003
  Py  C    7    0.0392   -0.0031    0.0284   -0.0043    0.0227   -0.0016    0.0137    0.0057
  Pz  C    7    0.0079    0.0033   -0.0370   -0.0002   -0.0285    0.0015   -0.0175   -0.0117
  S   H    8    0.0331    0.0056   -0.0717    0.0057   -0.0588   -0.0035   -0.0379   -0.0133
  S   H    9    0.0189    0.0070   -0.0725    0.0066   -0.0596   -0.0068   -0.0351   -0.0079
  S   C   10    0.0158    0.0288   -0.2814    0.0185   -0.2213    0.0086   -0.1339   -0.0669
  Px  C   10   -0.0062    0.0069   -0.0235    0.0024   -0.0158   -0.0031   -0.0034    0.0010
  Py  C   10    0.0108   -0.0048    0.0355   -0.0033    0.0270   -0.0096    0.0165    0.0119
  Pz  C   10   -0.0046    0.0041   -0.0296    0.0018   -0.0210    0.0083   -0.0115   -0.0126
  S   C   11    0.0066    0.0203   -0.2295    0.0150   -0.1812    0.0247   -0.1144   -0.0674
  Px  C   11    0.0005    0.0097   -0.0894    0.0062   -0.0695    0.0085   -0.0414   -0.0238
  Py  C   11    0.0045   -0.0014    0.0129   -0.0014    0.0099   -0.0077    0.0057    0.0056
  Pz  C   11   -0.0027    0.0013   -0.0113    0.0009   -0.0083    0.0068   -0.0039   -0.0056
  S   H   12    0.0055    0.0047   -0.0611    0.0036   -0.0488    0.0055   -0.0317   -0.0182
  S   C   13    0.0008    0.0221   -0.2332    0.0160   -0.1829    0.0426   -0.1085   -0.0704
  Px  C   13   -0.0001    0.0092   -0.0727    0.0052   -0.0555    0.0139   -0.0296   -0.0195
  Py  C   13    0.0009    0.0044   -0.0460    0.0030   -0.0359    0.0016   -0.0238   -0.0137
  Pz  C   13   -0.0006   -0.0034    0.0373   -0.0025    0.0295    0.0002    0.0214    0.0112
  S   H   14    0.0001    0.0054   -0.0622    0.0043   -0.0492    0.0147   -0.0284   -0.0194
  S   C   15    0.0002    0.0324   -0.2531    0.0178   -0.1933    0.0573   -0.1007   -0.0693
  Px  C   15   -0.0001    0.0053    0.0095   -0.0005    0.0111   -0.0026    0.0101    0.0063
  Py  C   15    0.0002    0.0085   -0.0617    0.0043   -0.0459    0.0013   -0.0298   -0.0177
  Pz  C   15   -0.0002   -0.0093    0.0689   -0.0048    0.0529    0.0002    0.0376    0.0205
  S   H   16   -0.0000    0.0097   -0.0743    0.0053   -0.0569    0.0396   -0.0128   -0.0153
  S   C   17    0.0028    0.0442   -0.2624    0.0187   -0.1963    0.0011   -0.1015   -0.0453
  Px  C   17   -0.0022    0.0018    0.0649   -0.0041    0.0549   -0.0118    0.0411    0.0275
  Py  C   17    0.0021   -0.0062    0.0300   -0.0022    0.0229   -0.0104    0.0160    0.0117
  Pz  C   17   -0.0010    0.0070   -0.0361    0.0025   -0.0229    0.0091   -0.0136   -0.0167
  S   H   18    0.0015    0.0248   -0.0915    0.0069   -0.0665   -0.0171   -0.0195    0.0088
  S   C   19    0.0001    0.0527   -0.2614    0.0187   -0.1888    0.0294   -0.1006   -0.0616
  Px  C   19   -0.0003    0.0018    0.0841   -0.0057    0.0708   -0.0165    0.0416    0.0267
  Py  C   19    0.0003    0.0033   -0.0179    0.0013   -0.0105   -0.0095   -0.0042   -0.0005
  Pz  C   19   -0.0001   -0.0044    0.0218   -0.0016    0.0182    0.0079    0.0110    0.0008
  S   H   20   -0.0000    0.0404   -0.0841    0.0062   -0.0474    0.0064   -0.0254   -0.0156
  S   O   21    0.0052   -0.0001    0.0365    0.3792    0.0017    0.0054    0.0102   -0.0090
  Px  O   21   -0.0015    0.0000   -0.0061   -0.0625   -0.0003   -0.0008   -0.0016    0.0014
  Py  O   21   -0.0024    0.0000   -0.0094   -0.0980   -0.0004   -0.0013   -0.0024    0.0022
  Pz  O   21    0.0008   -0.0000    0.0032    0.0326    0.0002    0.0005    0.0009   -0.0008
  S   H   22    0.0043   -0.0001    0.0138    0.1419    0.0007    0.0019    0.0036   -0.0032
  S   H   23    0.0049   -0.0001    0.0160    0.1664    0.0007    0.0022    0.0040   -0.0036
  S   O   24    0.0001    0.0005   -0.0105   -0.0000   -0.0085    0.0033   -0.0027   -0.0067
  Px  O   24    0.0000    0.0000    0.0001    0.0001    0.0001    0.0001   -0.0002    0.0004
  Py  O   24    0.0000    0.0001   -0.0020   -0.0001   -0.0015   -0.0003   -0.0004   -0.0014
  Pz  O   24   -0.0000   -0.0001    0.0009   -0.0000    0.0006    0.0006    0.0006    0.0002
  S   H   25    0.0000    0.0002   -0.0040   -0.0001   -0.0032    0.0014   -0.0007   -0.0027
  S   H   26    0.0001    0.0004   -0.0063   -0.0001   -0.0050    0.0009   -0.0017   -0.0036
  S   O   27    0.0002    0.1275   -0.0836    0.0085   -0.1700   -0.3213    0.2233    0.6150
  Px  O   27   -0.0001    0.0074    0.0060   -0.0006   -0.0054   -0.0104    0.0094    0.0226
  Py  O   27    0.0001    0.0090   -0.0386    0.0038   -0.0305   -0.0857    0.0587    0.1647
  Pz  O   27   -0.0000    0.0083    0.0034   -0.0004    0.0067    0.0123   -0.0076   -0.0258
  S   H   28    0.0001    0.0461   -0.0302    0.0031   -0.0616   -0.1179    0.0821    0.2263
  S   H   29    0.0002    0.0484   -0.0441    0.0043   -0.0581   -0.1184    0.0813    0.2201
  S   O   30    0.0003    0.1184   -0.2040    0.0181    0.1014   -0.1410    0.1824   -0.0285
  Px  O   30   -0.0000    0.0363   -0.0406    0.0038    0.0349   -0.0160    0.0147    0.0162
  Py  O   30    0.0001   -0.0072   -0.0006   -0.0000   -0.0038   -0.0154    0.0255   -0.0139
  Pz  O   30   -0.0001   -0.0177    0.0318   -0.0028   -0.0081    0.0187   -0.0174   -0.0091
  S   H   31    0.0001    0.0787   -0.0930    0.0085    0.0653   -0.0434    0.0522    0.0028
  S   H   32    0.0003    0.0437   -0.0772    0.0068    0.0271   -0.0561    0.0683   -0.0039
  S   O   33    0.0000    0.5990    0.4121   -0.0391   -0.4042    0.0228    0.0214   -0.1556
  Px  O   33   -0.0000   -0.0821   -0.0599    0.0057    0.0623   -0.0036   -0.0028    0.0247
  Py  O   33    0.0000    0.1336    0.0638   -0.0060   -0.0562    0.0045    0.0018   -0.0206
  Pz  O   33   -0.0000   -0.0844   -0.0798    0.0076    0.0876    0.0003   -0.0081    0.0264
  S   H   34    0.0000    0.2625    0.1503   -0.0142   -0.1477    0.0030    0.0107   -0.0427
  S   H   35    0.0000    0.2165    0.1474   -0.0141   -0.1506    0.0071    0.0079   -0.0553
  S   O   36    0.0006    0.0388   -0.0746    0.0099   -0.1111   -0.1505    0.0735    0.2886
  Px  O   36   -0.0001    0.0068   -0.0071    0.0006   -0.0132   -0.0194    0.0114    0.0373
  Py  O   36    0.0003    0.0087   -0.0187    0.0026   -0.0260   -0.0346    0.0163    0.0659
  Pz  O   36    0.0001    0.0085   -0.0106    0.0009   -0.0164   -0.0204    0.0108    0.0379
  S   H   37    0.0004    0.0278   -0.0409    0.0049   -0.0623   -0.0823    0.0420    0.1554
  S   H   38    0.0005    0.0110   -0.0250    0.0039   -0.0349   -0.0448    0.0199    0.0852
  S   O   39    0.0030    0.0008   -0.0055    0.2254   -0.0257   -0.0118   -0.0291    0.0102
  Px  O   39   -0.0004   -0.0000   -0.0005   -0.0477    0.0040    0.0020    0.0054   -0.0018
  Py  O   39    0.0010   -0.0001    0.0028    0.0412   -0.0012   -0.0007   -0.0022    0.0006
  Pz  O   39    0.0007    0.0001   -0.0017    0.0069   -0.0022   -0.0008   -0.0017    0.0006
  S   H   40    0.0036    0.0002    0.0014    0.1042   -0.0081   -0.0035   -0.0090    0.0029
  S   H   41    0.0015    0.0003   -0.0022    0.0913   -0.0104   -0.0048   -0.0118    0.0041
  S   O   42    0.0000    0.0069   -0.0494    0.0034   -0.0454    0.0117   -0.0301   -0.0207
  Px  O   42    0.0000    0.0018   -0.0094    0.0007   -0.0093    0.0023   -0.0060   -0.0042
  Py  O   42    0.0000    0.0014   -0.0105    0.0007   -0.0092    0.0023   -0.0058   -0.0039
  Pz  O   42    0.0000    0.0011   -0.0095    0.0007   -0.0078    0.0020   -0.0049   -0.0032
  S   H   43    0.0000    0.0033   -0.0162    0.0011   -0.0161    0.0039   -0.0101   -0.0071
  S   H   44    0.0000    0.0045   -0.0321    0.0022   -0.0276    0.0068   -0.0170   -0.0113
  S   O   45    0.0010    0.0224   -0.1665    0.0127    0.0094   -0.3285    0.5839   -0.4471
  Px  O   45   -0.0003    0.0032   -0.0139    0.0012    0.0020   -0.0228    0.0390   -0.0273
  Py  O   45   -0.0003   -0.0059    0.0411   -0.0031   -0.0020    0.0779   -0.1378    0.1052
  Pz  O   45   -0.0003    0.0001   -0.0048    0.0004    0.0002   -0.0127    0.0236   -0.0189
  S   H   46    0.0006    0.0137   -0.0759    0.0059    0.0058   -0.1340    0.2339   -0.1747
  S   H   47    0.0007    0.0070   -0.0543    0.0040    0.0017   -0.1054    0.1875   -0.1449
  S   O   48    0.0015    0.0009   -0.0165   -0.0013   -0.0037   -0.0360    0.0676   -0.0627
  Px  O   48    0.0004    0.0002   -0.0026   -0.0000   -0.0005   -0.0054    0.0098   -0.0089
  Py  O   48    0.0000    0.0000   -0.0015   -0.0001   -0.0004   -0.0038    0.0072   -0.0068
  Pz  O   48   -0.0007   -0.0003    0.0042    0.0003    0.0010    0.0086   -0.0160    0.0148
  S   H   49    0.0007    0.0003   -0.0058   -0.0005   -0.0013   -0.0126    0.0238   -0.0220
  S   H   50    0.0021    0.0006   -0.0088   -0.0006   -0.0020   -0.0174    0.0321   -0.0294
  S   O   51    0.0036    0.0045   -0.0673    0.0468   -0.0664   -0.0259   -0.0459    0.0247
  Px  O   51    0.0001    0.0007   -0.0072    0.0022   -0.0071   -0.0034   -0.0036    0.0042
  Py  O   51    0.0018    0.0015   -0.0210    0.0150   -0.0205   -0.0075   -0.0140    0.0068
  Pz  O   51    0.0008    0.0003   -0.0030   -0.0002   -0.0024   -0.0002   -0.0014   -0.0005
  S   H   52    0.0025    0.0027   -0.0318    0.0187   -0.0312   -0.0126   -0.0191    0.0131
  S   H   53    0.0036    0.0021   -0.0300    0.0262   -0.0296   -0.0105   -0.0208    0.0090
  S   O   54    0.0219   -0.0004    0.0686    0.7283    0.0005    0.0046    0.0068   -0.0065
  Px  O   54   -0.0042    0.0001   -0.0091   -0.0958   -0.0001   -0.0005   -0.0008    0.0007
  Py  O   54    0.0037   -0.0001    0.0160    0.1589    0.0011    0.0016    0.0028   -0.0020
  Pz  O   54    0.0118   -0.0001    0.0001   -0.0153    0.0013    0.0003    0.0010    0.0000
  S   H   55    0.0054   -0.0001    0.0235    0.2555   -0.0003    0.0014    0.0019   -0.0022
  S   H   56    0.0231   -0.0002    0.0268    0.2705    0.0013    0.0020    0.0034   -0.0025
  S   O   57    0.0005    0.0002   -0.0040   -0.0032   -0.0016   -0.0049    0.0119   -0.0115
  Px  O   57    0.0001    0.0001   -0.0012   -0.0008   -0.0005   -0.0014    0.0033   -0.0032
  Py  O   57    0.0002    0.0000   -0.0003   -0.0006    0.0001   -0.0011    0.0024   -0.0019
  Pz  O   57    0.0002   -0.0000    0.0005    0.0005    0.0002    0.0001   -0.0006    0.0007
  S   H   58    0.0008    0.0001   -0.0020   -0.0025   -0.0007   -0.0023    0.0060   -0.0054
  S   H   59    0.0004    0.0001   -0.0020   -0.0011   -0.0007   -0.0031    0.0066   -0.0062
  S   O   60    0.0000    0.5459   -0.2806    0.0288    0.5332    0.0917   -0.1097    0.0488
  Px  O   60    0.0000    0.0762   -0.0400    0.0042    0.0853    0.0154   -0.0183    0.0093
  Py  O   60    0.0000    0.0294   -0.0334    0.0033    0.0489    0.0010   -0.0019    0.0066
  Pz  O   60   -0.0000   -0.1406    0.0510   -0.0053   -0.1025   -0.0197    0.0231   -0.0076
  S   H   61    0.0000    0.2161   -0.1147    0.0117    0.2117    0.0319   -0.0386    0.0214
  S   H   62    0.0000    0.2520   -0.0760    0.0079    0.1609    0.0331   -0.0378    0.0097
  S   O   63    0.0000    0.0013   -0.0385    0.0026   -0.0336    0.0508   -0.0070   -0.0205
  Px  O   63    0.0000    0.0002   -0.0053    0.0004   -0.0046    0.0070   -0.0005   -0.0024
  Py  O   63    0.0000    0.0004   -0.0107    0.0007   -0.0093    0.0134   -0.0021   -0.0056
  Pz  O   63   -0.0000   -0.0000   -0.0002    0.0000   -0.0003    0.0018    0.0006   -0.0001
  S   H   64    0.0000    0.0007   -0.0178    0.0012   -0.0154    0.0212   -0.0038   -0.0091
  S   H   65    0.0000    0.0006   -0.0161    0.0011   -0.0140    0.0216   -0.0017   -0.0077
  S   O   66   -0.0000    0.0044   -0.1082    0.0080   -0.0978    0.6840    0.4733    0.1551
  Px  O   66    0.0000   -0.0003    0.0084   -0.0006    0.0076   -0.0534   -0.0370   -0.0121
  Py  O   66   -0.0000    0.0014   -0.0277    0.0020   -0.0246    0.1580    0.1077    0.0348
  Pz  O   66    0.0000    0.0002   -0.0107    0.0008   -0.0100    0.0833    0.0592    0.0198
  S   H   67   -0.0000    0.0025   -0.0457    0.0034   -0.0403    0.2518    0.1708    0.0550
  S   H   68   -0.0000    0.0015   -0.0393    0.0029   -0.0356    0.2513    0.1742    0.0572
  S   H   69    0.0809   -0.0008    0.0133   -0.0081    0.0117    0.0012    0.0102    0.0033
  S   H   70    0.0888    0.0025   -0.0340    0.0006   -0.0272   -0.0033   -0.0170   -0.0081


   Root No.       9        10        11        12        13        14        15        16

                 9 A      10 A      11 A      12 A      13 A      14 A      15 A      16 A   

               -29.974   -29.913   -29.847   -29.691   -29.665   -29.400   -29.240   -29.111
  
  S   C    1   -0.0328    0.0630    0.3714   -0.0234   -0.1103    0.0194   -0.0004    0.0020
  Px  C    1    0.0071   -0.0196   -0.1319    0.0034    0.0354   -0.0259   -0.0029    0.0077
  Py  C    1    0.0103   -0.0270   -0.1772    0.0021    0.0506   -0.0286   -0.0025    0.0086
  Pz  C    1   -0.0128    0.0328    0.2168   -0.0021   -0.0563    0.0373    0.0038   -0.0113
  S   O    2   -0.0484    0.1113    0.6980   -0.0219   -0.1900    0.0902    0.0080   -0.0220
  Px  O    2   -0.0058    0.0123    0.0779   -0.0027   -0.0238    0.0080    0.0002   -0.0017
  Py  O    2   -0.0148    0.0318    0.1994   -0.0081   -0.0554    0.0212    0.0016   -0.0039
  Pz  O    2    0.0148   -0.0310   -0.1983    0.0102    0.0667   -0.0211   -0.0007    0.0038
  S   N    3    0.0012   -0.0125   -0.1074   -0.0017    0.0244   -0.0394   -0.0047    0.0143
  Px  N    3    0.0147   -0.0209   -0.1027    0.0182    0.0347    0.0163    0.0034   -0.0112
  Py  N    3   -0.0045   -0.0018   -0.0315   -0.0116    0.0076   -0.0210   -0.0026    0.0100
  Pz  N    3   -0.0038    0.0089    0.0610    0.0033   -0.0168    0.0076    0.0001   -0.0029
  S   H    4   -0.0005   -0.0078   -0.0611   -0.0103    0.0172   -0.0140   -0.0011    0.0060
  S   C    5    0.0249   -0.0273   -0.0861    0.0414    0.0347    0.0571    0.0077   -0.0310
  Px  C    5    0.0038   -0.0035   -0.0009    0.0052    0.0023    0.0165    0.0025   -0.0064
  Py  C    5   -0.0063    0.0028   -0.0204   -0.0103    0.0037   -0.0293   -0.0032    0.0132
  Pz  C    5   -0.0067    0.0058    0.0354   -0.0060   -0.0074   -0.0049   -0.0025    0.0020
  S   H    6    0.0082   -0.0096   -0.0143    0.0174    0.0134    0.0276    0.0018   -0.0155
  S   C    7    0.0402   -0.0320   -0.0465    0.0590    0.0217    0.1156    0.0162   -0.0519
  Px  C    7   -0.0018   -0.0014    0.0039   -0.0015   -0.0011    0.0021    0.0002    0.0045
  Py  C    7    0.0026    0.0002   -0.0208    0.0032    0.0067   -0.0029    0.0019    0.0018
  Pz  C    7   -0.0092   -0.0062    0.0001   -0.0057    0.0034   -0.0071   -0.0065   -0.0018
  S   H    8    0.0274   -0.0128   -0.0185    0.0346    0.0076    0.0648    0.0120   -0.0308
  S   H    9    0.0259   -0.0132   -0.0192    0.0338    0.0077    0.0675    0.0118   -0.0204
  S   C   10   -0.0110   -0.0371    0.0087    0.0028    0.0064    0.0317   -0.0158   -0.0312
  Px  C   10   -0.0069   -0.0032    0.0059   -0.0082   -0.0030   -0.0114    0.0029    0.0128
  Py  C   10    0.0185   -0.0007   -0.0193    0.0221    0.0065    0.0364    0.0136   -0.0082
  Pz  C   10   -0.0193    0.0009    0.0161   -0.0224   -0.0050   -0.0391   -0.0123    0.0081
  S   C   11   -0.0315   -0.0160    0.0274   -0.0251   -0.0013   -0.0267   -0.0370   -0.0220
  Px  C   11   -0.0127   -0.0106    0.0105   -0.0115   -0.0016   -0.0132   -0.0115   -0.0036
  Py  C   11    0.0110   -0.0049   -0.0088    0.0133    0.0037    0.0242    0.0094   -0.0050
  Pz  C   11   -0.0105    0.0052    0.0077   -0.0123   -0.0029   -0.0228   -0.0083    0.0047
  S   H   12   -0.0055   -0.0029    0.0066   -0.0023    0.0012    0.0009   -0.0087   -0.0097
  S   C   13   -0.0498   -0.0001    0.0390   -0.0481   -0.0083   -0.0722   -0.0500   -0.0085
  Px  C   13   -0.0147   -0.0108    0.0138   -0.0165   -0.0033   -0.0253   -0.0122    0.0016
  Py  C   13   -0.0057   -0.0081    0.0062   -0.0049   -0.0001   -0.0043   -0.0061   -0.0040
  Pz  C   13    0.0041    0.0086   -0.0053    0.0036   -0.0000    0.0027    0.0055    0.0038
  S   H   14   -0.0160    0.0151    0.0087   -0.0137   -0.0027   -0.0218   -0.0153   -0.0024
  S   C   15   -0.0548   -0.0128    0.0458   -0.0577   -0.0116   -0.0901   -0.0451    0.0027
  Px  C   15    0.0029   -0.0058   -0.0011    0.0015   -0.0004    0.0017    0.0100    0.0058
  Py  C   15   -0.0114   -0.0064    0.0100   -0.0114   -0.0023   -0.0159   -0.0066    0.0008
  Pz  C   15    0.0134    0.0074   -0.0119    0.0134    0.0024    0.0189    0.0101   -0.0005
  S   H   16   -0.0157   -0.0013    0.0129   -0.0173   -0.0037   -0.0284   -0.0136    0.0013
  S   C   17   -0.0327   -0.0301    0.0276   -0.0281   -0.0055   -0.0270   -0.0033    0.0146
  Px  C   17    0.0041    0.0085   -0.0040    0.0009   -0.0022   -0.0050    0.0176    0.0184
  Py  C   17    0.0121    0.0013   -0.0114    0.0144    0.0034    0.0246    0.0103   -0.0034
  Pz  C   17   -0.0132   -0.0019    0.0110   -0.0158   -0.0042   -0.0290   -0.0029    0.0012
  S   H   18   -0.0091   -0.0099    0.0066   -0.0067   -0.0022   -0.0022    0.0126    0.0226
  S   C   19   -0.0510   -0.0240    0.0438   -0.0537   -0.0124   -0.0809   -0.0168    0.0172
  Px  C   19    0.0168    0.0061   -0.0145    0.0165    0.0022    0.0232    0.0244    0.0056
  Py  C   19    0.0002   -0.0034   -0.0004    0.0012   -0.0003    0.0044    0.0094    0.0035
  Pz  C   19    0.0011    0.0041   -0.0011   -0.0002   -0.0002   -0.0038   -0.0026   -0.0033
  S   H   20   -0.0156   -0.0077    0.0132   -0.0173   -0.0052   -0.0280    0.0098    0.0121
  S   O   21   -0.4338   -0.0697    0.0078    0.6161   -0.1254   -0.1233   -0.0174    0.0140
  Px  O   21    0.0637    0.0101   -0.0011   -0.0860    0.0174    0.0163    0.0022   -0.0017
  Py  O   21    0.0985    0.0156   -0.0018   -0.1322    0.0268    0.0248    0.0034   -0.0026
  Pz  O   21   -0.0380   -0.0061    0.0005    0.0542   -0.0110   -0.0109   -0.0015    0.0013
  S   H   22   -0.1465   -0.0233    0.0024    0.1989   -0.0403   -0.0380   -0.0052    0.0041
  S   H   23   -0.1623   -0.0257    0.0030    0.2152   -0.0435   -0.0398   -0.0054    0.0041
  S   O   24   -0.0108    0.0747    0.0202    0.0090    0.0327    0.0049    0.0031   -0.0047
  Px  O   24    0.0005   -0.0034   -0.0035   -0.0011   -0.0043   -0.0006   -0.0005    0.0005
  Py  O   24   -0.0006    0.0021    0.0096    0.0022    0.0102    0.0010    0.0007   -0.0013
  Pz  O   24   -0.0013    0.0120   -0.0032    0.0003   -0.0009    0.0002    0.0003    0.0003
  S   H   25   -0.0046    0.0326    0.0087    0.0040    0.0146    0.0020    0.0015   -0.0017
  S   H   26   -0.0038    0.0231    0.0144    0.0041    0.0168    0.0022    0.0012   -0.0024
  S   O   27   -0.0523    0.0273    0.0009   -0.0456    0.0200   -0.1537   -0.0635   -0.3633
  Px  O   27   -0.0033    0.0018   -0.0001   -0.0044    0.0013   -0.0197   -0.0027   -0.0535
  Py  O   27   -0.0142    0.0071    0.0003   -0.0127    0.0049   -0.0429   -0.0108   -0.0969
  Pz  O   27    0.0008   -0.0011    0.0001   -0.0005   -0.0014   -0.0040    0.0124   -0.0048
  S   H   28   -0.0191    0.0102    0.0003   -0.0166    0.0075   -0.0563   -0.0245   -0.1344
  S   H   29   -0.0186    0.0089    0.0005   -0.0160    0.0056   -0.0517   -0.0082   -0.1075
  S   O   30   -0.0116   -0.0046   -0.0101   -0.0394   -0.0713   -0.1564    0.7449    0.2046
  Px  O   30   -0.0032   -0.0006   -0.0007   -0.0079   -0.0111   -0.0358    0.1688    0.0447
  Py  O   30    0.0014    0.0004   -0.0024    0.0000   -0.0041    0.0004    0.0057    0.0005
  Pz  O   30    0.0034    0.0011    0.0003    0.0069    0.0091    0.0265   -0.1172   -0.0304
  S   H   31   -0.0050   -0.0016   -0.0025   -0.0144   -0.0235   -0.0576    0.2682    0.0727
  S   H   32   -0.0050   -0.0018   -0.0034   -0.0142   -0.0244   -0.0537    0.2450    0.0638
  S   O   33    0.0070   -0.0038   -0.0033    0.0015   -0.0098   -0.0009    0.0575    0.0249
  Px  O   33   -0.0008    0.0008    0.0002    0.0000    0.0018    0.0002   -0.0101   -0.0065
  Py  O   33    0.0012   -0.0003   -0.0005    0.0006   -0.0007    0.0007    0.0022    0.0003
  Pz  O   33   -0.0007    0.0007    0.0006    0.0004    0.0025    0.0020   -0.0164   -0.0058
  S   H   34    0.0016   -0.0007   -0.0012   -0.0000   -0.0025   -0.0021    0.0143    0.0010
  S   H   35    0.0020   -0.0016   -0.0008    0.0000   -0.0038   -0.0007    0.0214    0.0115
  S   O   36    0.0235    0.0053   -0.0031    0.0613    0.0115    0.2980   -0.1773    0.6961
  Px  O   36   -0.0017    0.0009    0.0001    0.0019    0.0016    0.0206   -0.0201    0.0661
  Py  O   36    0.0068    0.0011   -0.0009    0.0153    0.0025    0.0686   -0.0377    0.1500
  Pz  O   36   -0.0022    0.0005    0.0002    0.0013    0.0016    0.0176   -0.0179    0.0578
  S   H   37    0.0058    0.0029   -0.0009    0.0223    0.0058    0.1170   -0.0777    0.2808
  S   H   38    0.0131    0.0015   -0.0016    0.0248    0.0030    0.1015   -0.0493    0.2051
  S   O   39    0.6492    0.0955    0.0810    0.2259   -0.0887   -0.4159   -0.0987    0.1025
  Px  O   39   -0.1411   -0.0216   -0.0190   -0.0456    0.0200    0.1116    0.0286   -0.0312
  Py  O   39    0.0777    0.0127    0.0116    0.0120   -0.0091   -0.0705   -0.0195    0.0222
  Pz  O   39    0.0177    0.0018    0.0009    0.0095   -0.0018    0.0067    0.0034   -0.0049
  S   H   40    0.2088    0.0314    0.0270    0.0513   -0.0242   -0.1280   -0.0312    0.0328
  S   H   41    0.2645    0.0389    0.0330    0.0922   -0.0363   -0.1712   -0.0408    0.0425
  S   O   42   -0.0178   -0.0040    0.0170   -0.0242   -0.0050   -0.0559   -0.0476    0.0067
  Px  O   42   -0.0035   -0.0009    0.0034   -0.0049   -0.0010   -0.0113   -0.0097    0.0015
  Py  O   42   -0.0032   -0.0007    0.0029   -0.0040   -0.0008   -0.0085   -0.0069    0.0009
  Pz  O   42   -0.0026   -0.0005    0.0023   -0.0032   -0.0006   -0.0064   -0.0049    0.0005
  S   H   43   -0.0059   -0.0014    0.0057   -0.0080   -0.0017   -0.0185   -0.0158    0.0025
  S   H   44   -0.0092   -0.0020    0.0083   -0.0113   -0.0023   -0.0233   -0.0186    0.0022
  S   O   45    0.0308    0.0035   -0.0419    0.0036   -0.0782    0.0697   -0.2529   -0.0601
  Px  O   45    0.0016   -0.0004   -0.0049   -0.0024   -0.0150    0.0013   -0.0002    0.0006
  Py  O   45   -0.0070   -0.0007    0.0100   -0.0003    0.0196   -0.0153    0.0546    0.0128
  Pz  O   45    0.0014    0.0005   -0.0009    0.0010   -0.0000    0.0042   -0.0180   -0.0044
  S   H   46    0.0111    0.0007   -0.0172   -0.0012   -0.0364    0.0194   -0.0623   -0.0135
  S   H   47    0.0098    0.0016   -0.0110    0.0031   -0.0156    0.0226   -0.0845   -0.0203
  S   O   48   -0.0007    0.0421    0.2018    0.1515    0.7841   -0.0523    0.0420    0.0158
  Px  O   48    0.0003    0.0039    0.0198    0.0172    0.0887   -0.0060    0.0034    0.0017
  Py  O   48   -0.0001    0.0050    0.0246    0.0195    0.1015   -0.0073    0.0061    0.0024
  Pz  O   48    0.0001   -0.0094   -0.0447   -0.0330   -0.1697    0.0108   -0.0084   -0.0031
  S   H   49   -0.0003    0.0150    0.0719    0.0536    0.2771   -0.0184    0.0150    0.0056
  S   H   50   -0.0000    0.0171    0.0817    0.0608    0.3126   -0.0196    0.0142    0.0054
  S   O   51    0.3096    0.0137   -0.0110    0.3133   -0.0345    0.5582    0.2125   -0.2747
  Px  O   51    0.0218    0.0002   -0.0019    0.0268   -0.0021    0.0580    0.0190   -0.0203
  Py  O   51    0.0911    0.0041   -0.0031    0.0886   -0.0099    0.1508    0.0571   -0.0738
  Pz  O   51   -0.0011   -0.0008   -0.0009   -0.0003    0.0006    0.0007   -0.0006    0.0005
  S   H   52    0.1218    0.0045   -0.0056    0.1245   -0.0127    0.2258    0.0807   -0.0975
  S   H   53    0.1430    0.0078   -0.0028    0.1299   -0.0158    0.2025    0.0786   -0.1036
  S   O   54    0.0117    0.0170    0.0308   -0.4286    0.0859    0.1707    0.0294   -0.0291
  Px  O   54   -0.0099   -0.0036   -0.0040    0.0659   -0.0131   -0.0228   -0.0037    0.0036
  Py  O   54   -0.0315   -0.0014    0.0043   -0.0874    0.0190    0.0501    0.0098   -0.0100
  Pz  O   54   -0.0233   -0.0046   -0.0083    0.0150   -0.0005    0.0030    0.0015   -0.0012
  S   H   55    0.0104    0.0069    0.0133   -0.1404    0.0271    0.0522    0.0085   -0.0085
  S   H   56   -0.0169    0.0021    0.0055   -0.1346    0.0285    0.0596    0.0108   -0.0104
  S   O   57   -0.0072    0.0334    0.1252    0.0307    0.1466    0.0048    0.0143   -0.0029
  Px  O   57   -0.0017    0.0081    0.0306    0.0080    0.0385    0.0008    0.0034   -0.0006
  Py  O   57   -0.0008    0.0031    0.0203    0.0053    0.0262    0.0002    0.0023   -0.0002
  Pz  O   57    0.0011   -0.0039   -0.0153   -0.0014   -0.0054   -0.0018   -0.0010    0.0007
  S   H   58   -0.0044    0.0179    0.0728    0.0131    0.0601    0.0045    0.0063   -0.0020
  S   H   59   -0.0023    0.0124    0.0482    0.0159    0.0785   -0.0006    0.0062   -0.0003
  S   O   60    0.0125    0.0049   -0.0009    0.0203    0.0248    0.0564   -0.1933   -0.0408
  Px  O   60    0.0027    0.0012   -0.0006    0.0044    0.0051    0.0122   -0.0416   -0.0101
  Py  O   60    0.0004    0.0004   -0.0005    0.0001   -0.0005   -0.0019    0.0145    0.0043
  Pz  O   60   -0.0024   -0.0008   -0.0000   -0.0039   -0.0050   -0.0110    0.0400    0.0088
  S   H   61    0.0045    0.0020   -0.0006    0.0071    0.0083    0.0181   -0.0584   -0.0125
  S   H   62    0.0039    0.0013    0.0001    0.0063    0.0081    0.0179   -0.0650   -0.0143
  S   O   63   -0.1015    0.8189   -0.1474    0.0240   -0.0157    0.0192    0.0103    0.0022
  Px  O   63   -0.0120    0.0955   -0.0172    0.0026   -0.0020    0.0020    0.0010    0.0003
  Py  O   63   -0.0269    0.2155   -0.0385    0.0062   -0.0039    0.0048    0.0026    0.0005
  Pz  O   63   -0.0027    0.0243   -0.0047    0.0009   -0.0006    0.0010    0.0006    0.0001
  S   H   64   -0.0422    0.3367   -0.0596    0.0096   -0.0059    0.0073    0.0038    0.0007
  S   H   65   -0.0388    0.3110   -0.0558    0.0089   -0.0060    0.0069    0.0036    0.0008
  S   O   66    0.0388   -0.0447   -0.0116    0.0180    0.0045    0.0207    0.0080   -0.0010
  Px  O   66   -0.0030    0.0029    0.0010   -0.0014   -0.0003   -0.0017   -0.0006    0.0001
  Py  O   66    0.0081   -0.0097   -0.0022    0.0034    0.0008    0.0035    0.0012   -0.0001
  Pz  O   66    0.0054   -0.0054   -0.0020    0.0029    0.0007    0.0038    0.0016   -0.0002
  S   H   67    0.0126   -0.0152   -0.0033    0.0050    0.0013    0.0049    0.0017   -0.0002
  S   H   68    0.0143   -0.0155   -0.0045    0.0068    0.0017    0.0079    0.0031   -0.0004
  S   H   69   -0.0113    0.0208    0.1200   -0.0101   -0.0355    0.0041   -0.0003    0.0020
  S   H   70    0.0107   -0.0129   -0.0454    0.0179    0.0174    0.0237    0.0038   -0.0124


   Root No.      17        18        19        20        21        22        23        24

                17 A      18 A      19 A      20 A      21 A      22 A      23 A      24 A   

               -28.901   -28.498   -28.415   -27.850   -26.011   -25.496   -23.389   -21.383
  
  S   C    1    0.0113   -0.0831    0.0198    0.0270   -0.0306   -0.2052    0.2751    0.2424
  Px  C    1    0.0121   -0.0244    0.0484   -0.0080   -0.0044   -0.0383   -0.0087    0.0020
  Py  C    1    0.0143   -0.0261    0.0622   -0.0169   -0.0146   -0.0935    0.1081    0.0687
  Pz  C    1   -0.0196    0.0455   -0.0757    0.0091    0.0174    0.1268   -0.1325   -0.0504
  S   O    2   -0.0318    0.0469   -0.1288    0.0357    0.0181    0.1525   -0.1964   -0.2387
  Px  O    2   -0.0021   -0.0070   -0.0170    0.0117    0.0017    0.0012   -0.0005    0.0433
  Py  O    2   -0.0042   -0.0093   -0.0260    0.0037   -0.0050   -0.0169    0.0518    0.0768
  Pz  O    2    0.0031    0.0343    0.0460   -0.0363    0.0039    0.0267   -0.0647   -0.0867
  S   N    3    0.0249   -0.0598    0.0884   -0.0103   -0.0099   -0.0338   -0.0706   -0.1423
  Px  N    3   -0.0264    0.1046   -0.0890   -0.0099    0.0392    0.2828   -0.2909   -0.1321
  Py  N    3    0.0202   -0.0607    0.0740   -0.0050   -0.0225   -0.1141    0.0475   -0.1048
  Pz  N    3   -0.0069    0.0143   -0.0277    0.0055    0.0087    0.0391   -0.0146    0.1950
  S   H    4    0.0125   -0.0299    0.0464   -0.0066   -0.0099   -0.0366   -0.0188   -0.1646
  S   C    5   -0.0728    0.2382   -0.2446   -0.0032    0.0588    0.3889   -0.1686    0.1897
  Px  C    5   -0.0153    0.0430   -0.0498    0.0009   -0.0080    0.0131    0.0704    0.0208
  Py  C    5    0.0266   -0.0681    0.0828   -0.0053   -0.0021    0.0540   -0.1883   -0.0585
  Pz  C    5    0.0016   -0.0139    0.0091    0.0031    0.0009   -0.0290   -0.0116    0.1462
  S   H    6   -0.0373    0.1125   -0.1195    0.0013    0.0304    0.1517   -0.0686    0.1846
  S   C    7   -0.1064    0.3025   -0.3344    0.0057    0.0037    0.0204    0.3581   -0.0648
  Px  C    7   -0.0031   -0.0013   -0.0020   -0.0007   -0.0560   -0.0495    0.0231   -0.1176
  Py  C    7    0.0027    0.0164   -0.0117   -0.0028    0.0190    0.1955   -0.0888    0.0860
  Pz  C    7   -0.0217    0.0432   -0.0479    0.0015    0.0052   -0.0248   -0.0621    0.0899
  S   H    8   -0.0428    0.1266   -0.1402    0.0034    0.0215   -0.0098    0.1977   -0.0224
  S   H    9   -0.0414    0.1205   -0.1351    0.0019   -0.0271   -0.0090    0.1952   -0.1203
  S   C   10   -0.0975    0.1551   -0.1833    0.0055   -0.0482   -0.3429   -0.0076   -0.0697
  Px  C   10    0.0017   -0.0309    0.0263   -0.0053   -0.2153   -0.0049   -0.0535   -0.2534
  Py  C   10   -0.0182    0.0876   -0.0943    0.0014   -0.0286    0.0692    0.1476   -0.0318
  Pz  C   10    0.0142   -0.0782    0.0858   -0.0014    0.0313   -0.0191   -0.1820    0.0966
  S   C   11   -0.0381    0.0021    0.0035    0.0114    0.3785   -0.2705   -0.2239    0.2639
  Px  C   11   -0.0124   -0.0145    0.0047   -0.0047   -0.0095   -0.0523   -0.0172   -0.0601
  Py  C   11   -0.0220    0.0649   -0.0702    0.0026   -0.1015   -0.0489    0.0365    0.0832
  Pz  C   11    0.0150   -0.0577    0.0650   -0.0011    0.0873    0.0593   -0.0404   -0.0557
  S   H   12   -0.0165    0.0281   -0.0161    0.0119    0.1440   -0.1025   -0.0749    0.1649
  S   C   13    0.0135   -0.1350    0.1467   -0.0003    0.4460    0.0401   -0.0172   -0.1763
  Px  C   13    0.0071   -0.0555    0.0540   -0.0058   -0.0392    0.1143    0.1284   -0.0859
  Py  C   13   -0.0184    0.0040   -0.0033    0.0029    0.0483   -0.0995   -0.1223    0.1548
  Pz  C   13    0.0053   -0.0090    0.0089   -0.0026   -0.0555    0.1071    0.1259   -0.1288
  S   H   14    0.0117   -0.0436    0.0485    0.0003    0.1799    0.0310    0.0145   -0.1279
  S   C   15    0.0249   -0.1932    0.2003   -0.0116    0.0722    0.3401    0.3124   -0.0861
  Px  C   15   -0.0032   -0.0002   -0.0026   -0.0028   -0.2330    0.0613    0.0336    0.2418
  Py  C   15   -0.0107   -0.0288    0.0280   -0.0017   -0.0435   -0.0030   -0.0501    0.0792
  Pz  C   15   -0.0034    0.0308   -0.0305    0.0017    0.0253    0.0100    0.0629   -0.0563
  S   H   16    0.0121   -0.0663    0.0694   -0.0043    0.0361    0.1621    0.1869   -0.0700
  S   C   17   -0.0488   -0.0132   -0.0051   -0.0063   -0.4307   -0.1728   -0.2203   -0.1874
  Px  C   17    0.0222   -0.0326    0.0388   -0.0019   -0.0725    0.1109   -0.0175    0.0648
  Py  C   17   -0.0136    0.0607   -0.0646    0.0031    0.0421   -0.0665    0.0253   -0.1264
  Pz  C   17    0.0091   -0.0594    0.0633   -0.0032   -0.0456    0.0774   -0.0362    0.1509
  S   H   18   -0.0182    0.0057   -0.0132   -0.0024   -0.2101   -0.0640   -0.0964   -0.1240
  S   C   19    0.0003   -0.1594    0.1574   -0.0134   -0.3758    0.2150    0.0209    0.2537
  Px  C   19   -0.0010    0.0460   -0.0467    0.0023   -0.0657   -0.0387   -0.0614    0.0793
  Py  C   19   -0.0166    0.0206   -0.0249    0.0006   -0.0919   -0.1064   -0.1492   -0.0446
  Pz  C   19    0.0091   -0.0183    0.0226   -0.0004    0.0986    0.1115    0.1567    0.0567
  S   H   20    0.0013   -0.0533    0.0526   -0.0051   -0.1913    0.0948    0.0001    0.1715
  S   O   21   -0.0012   -0.0003   -0.0003    0.0003    0.0002    0.0001    0.0011    0.0078
  Px  O   21    0.0001    0.0001   -0.0001   -0.0000    0.0000    0.0003   -0.0002    0.0023
  Py  O   21    0.0002   -0.0000    0.0002   -0.0001   -0.0000   -0.0003    0.0004    0.0023
  Pz  O   21   -0.0001   -0.0001    0.0001    0.0000   -0.0000   -0.0002    0.0001   -0.0014
  S   H   22   -0.0003   -0.0003    0.0002    0.0001   -0.0000   -0.0004    0.0002   -0.0024
  S   H   23   -0.0004    0.0001   -0.0003    0.0001    0.0001    0.0005   -0.0004   -0.0017
  S   O   24   -0.0154    0.4281    0.4163    0.6128   -0.0241    0.0051    0.0119   -0.0016
  Px  O   24    0.0018   -0.0546   -0.0534   -0.0768    0.0073   -0.0021   -0.0047    0.0038
  Py  O   24   -0.0040    0.1086    0.1046    0.1388   -0.0050    0.0012    0.0002    0.0001
  Pz  O   24    0.0005   -0.0024   -0.0010    0.0046   -0.0065    0.0021    0.0070   -0.0060
  S   H   25   -0.0059    0.1666    0.1616    0.2209   -0.0110    0.0024    0.0065   -0.0031
  S   H   26   -0.0070    0.1721    0.1632    0.2070   -0.0008    0.0003   -0.0056    0.0022
  S   O   27   -0.0001    0.0006   -0.0004    0.0002    0.0242    0.0054    0.0084    0.0086
  Px  O   27   -0.0000    0.0005   -0.0004    0.0001    0.0151    0.0035    0.0111    0.0190
  Py  O   27    0.0000    0.0004   -0.0005    0.0000    0.0019    0.0001   -0.0008   -0.0058
  Pz  O   27   -0.0005    0.0005   -0.0008   -0.0001   -0.0080   -0.0015   -0.0045   -0.0068
  S   H   28    0.0001    0.0002   -0.0001    0.0001    0.0132    0.0029    0.0066    0.0094
  S   H   29   -0.0003    0.0005   -0.0008   -0.0000   -0.0071   -0.0019   -0.0065   -0.0121
  S   O   30    0.0240    0.0208   -0.0173    0.0032    0.0682   -0.0019    0.0139   -0.0002
  Px  O   30    0.0058    0.0055   -0.0050    0.0011    0.0249    0.0007    0.0095    0.0070
  Py  O   30    0.0004    0.0037   -0.0033    0.0002    0.0157   -0.0067    0.0017   -0.0281
  Pz  O   30   -0.0026   -0.0029    0.0030   -0.0004    0.0070    0.0035    0.0094    0.0139
  S   H   31    0.0087    0.0058   -0.0048    0.0011    0.0168    0.0033    0.0055    0.0142
  S   H   32    0.0066    0.0074   -0.0066    0.0008    0.0068   -0.0049   -0.0050   -0.0167
  S   O   33   -0.0050    0.0051   -0.0049    0.0005    0.0163   -0.0053    0.0018   -0.0107
  Px  O   33   -0.0003    0.0001   -0.0001    0.0000    0.0029   -0.0011    0.0006   -0.0021
  Py  O   33   -0.0014    0.0006   -0.0006    0.0001    0.0007   -0.0001   -0.0002    0.0075
  Pz  O   33    0.0003   -0.0010    0.0010   -0.0001   -0.0035    0.0015   -0.0001    0.0062
  S   H   34   -0.0022    0.0015   -0.0015    0.0001    0.0037   -0.0010    0.0002    0.0031
  S   H   35    0.0001    0.0007   -0.0007    0.0000   -0.0011    0.0004   -0.0005   -0.0000
  S   O   36    0.0158   -0.0186    0.0263    0.0008    0.0470    0.0134    0.0045    0.0216
  Px  O   36    0.0009   -0.0020    0.0029    0.0000    0.0017    0.0009   -0.0075   -0.0010
  Py  O   36    0.0033   -0.0035    0.0049    0.0002    0.0086    0.0022    0.0046    0.0007
  Pz  O   36   -0.0004    0.0003    0.0000   -0.0000   -0.0103   -0.0036   -0.0111   -0.0182
  S   H   37    0.0050   -0.0062    0.0089    0.0002    0.0025    0.0002   -0.0082   -0.0097
  S   H   38    0.0059   -0.0059    0.0079    0.0003    0.0156    0.0042    0.0096    0.0074
  S   O   39   -0.0252    0.0216   -0.0192    0.0000   -0.0004   -0.0006   -0.0013   -0.0022
  Px  O   39    0.0087   -0.0091    0.0085   -0.0000    0.0002    0.0005    0.0004    0.0023
  Py  O   39   -0.0069    0.0083   -0.0080    0.0001   -0.0001    0.0001    0.0002    0.0039
  Pz  O   39    0.0019   -0.0028    0.0028   -0.0000    0.0001    0.0002    0.0010    0.0001
  S   H   40   -0.0087    0.0084   -0.0079    0.0001   -0.0000    0.0004    0.0004    0.0042
  S   H   41   -0.0106    0.0093   -0.0083    0.0000   -0.0001   -0.0004   -0.0003   -0.0022
  S   O   42    0.8521    0.1490   -0.1275    0.0026   -0.0218   -0.0183   -0.0087    0.0081
  Px  O   42    0.1761    0.0313   -0.0269    0.0005   -0.0068   -0.0044   -0.0028    0.0055
  Py  O   42    0.1092    0.0161   -0.0132    0.0002    0.0017    0.0013    0.0024   -0.0058
  Pz  O   42    0.0685    0.0079   -0.0060    0.0000    0.0049    0.0041    0.0049   -0.0102
[...]
  
  S  C   5   0.00018    -0.00001     0.01135     0.00110     0.00013     0.00890
 PX  C   5  -0.00000    -0.00001    -0.03177     0.00121    -0.00006     0.00009
 PY  C   5  -0.00005     0.00001     0.01012    -0.00259    -0.00000    -0.01111
 PZ  C   5   0.00026    -0.00002    -0.01910    -0.00093     0.00013    -0.00327
  
  S  H   6  -0.00024     0.00002     0.00986    -0.00044    -0.00012    -0.00132
  
  S  C   7  -0.00004    -0.00008    -0.00379    -0.00983    -0.00003    -0.00234
 PX  C   7   0.00001    -0.00003     0.00235     0.00401    -0.00001     0.00252
 PY  C   7  -0.00008     0.00010    -0.00348     0.00117    -0.00002    -0.00370
 PZ  C   7  -0.00003    -0.00013    -0.00149     0.00579    -0.00004    -0.00015
  
  S  H   8   0.00001    -0.00005    -0.00266     0.01356     0.00001    -0.00691
  
  S  H   9   0.00002     0.00007     0.00192     0.00666     0.00001    -0.00299
  
  S  C  10  -0.00002     0.00049     0.00184     0.00015    -0.00007    -0.00122
 PX  C  10   0.00001    -0.00056    -0.00055     0.00021     0.00007    -0.00706
 PY  C  10   0.00000    -0.00016     0.00131     0.00145     0.00014    -0.11402
 PZ  C  10   0.00001     0.00040    -0.00261     0.00121     0.00004    -0.10990
  
  S  C  11   0.00005    -0.00053    -0.00213    -0.00007     0.00043    -0.00166
 PX  C  11  -0.00008    -0.00055     0.00226     0.00011    -0.00056     0.00913
 PY  C  11   0.00003     0.00075     0.00050    -0.00049     0.00018    -0.09256
 PZ  C  11  -0.00000     0.00031     0.00157    -0.00057    -0.00009    -0.11549
  
  S  H  12  -0.00001    -0.00038     0.00418    -0.00003    -0.00016    -0.00361
  
  S  C  13   0.00000     0.00484     0.00040     0.00001     0.00009     0.01210
 PX  C  13  -0.00001    -0.00395     0.00010     0.00001    -0.00011    -0.03091
 PY  C  13   0.00000    -0.00457     0.00005    -0.00007     0.00001     0.11830
 PZ  C  13   0.00003     0.00096    -0.00091    -0.00013     0.00018     0.14855
  
  S  H  14  -0.00000    -0.01060     0.00010     0.00002    -0.00005    -0.00190
  
  S  C  15   0.00000     0.00007    -0.00010    -0.00003     0.00000    -0.05314
 PX  C  15  -0.00000     0.00027     0.00034    -0.00009    -0.00002    -0.08041
 PY  C  15  -0.00001    -0.00032    -0.00057     0.00071     0.00004     0.52568
 PZ  C  15  -0.00001     0.00069    -0.00039     0.00053     0.00003     0.43421
  
  S  H  16  -0.00000    -0.00094     0.00013     0.00004    -0.00002     0.00811
  
  S  C  17  -0.00000     0.00015    -0.00047    -0.00036     0.00004     0.00493
 PX  C  17  -0.00001    -0.00005     0.00060     0.00021    -0.00006     0.00495
 PY  C  17  -0.00000    -0.00042     0.00066    -0.00113    -0.00001     0.11165
 PZ  C  17   0.00000    -0.00020     0.00092    -0.00093    -0.00004     0.11310
  
  S  H  18  -0.00000     0.00006    -0.00013    -0.00001    -0.00002     0.00027
  
  S  C  19  -0.00000     0.00026     0.00015     0.00005     0.00002    -0.02340
 PX  C  19  -0.00001    -0.00022    -0.00006     0.00001    -0.00001    -0.00951
 PY  C  19  -0.00002    -0.00001     0.00064    -0.00027    -0.00007     0.49483
 PZ  C  19  -0.00001     0.00048     0.00004    -0.00034    -0.00006     0.41082
  
  S  H  20  -0.00000    -0.00015    -0.00015    -0.00001    -0.00000     0.00377
  
  S  O  21   0.00000    -0.00000    -0.00030     0.00002     0.00000    -0.00001
 PX  O  21  -0.00000     0.00000     0.00043    -0.00002    -0.00000     0.00001
 PY  O  21  -0.00000     0.00000     0.00066    -0.00004    -0.00000     0.00002
 PZ  O  21   0.00000    -0.00000    -0.00022     0.00001     0.00000    -0.00001
  
  S  H  22  -0.00000     0.00000     0.00060    -0.00003    -0.00000     0.00002
  
  S  H  23  -0.00000     0.00000     0.00060    -0.00004    -0.00000     0.00002
  
  S  O  24   0.00090    -0.00008    -0.00139     0.00000     0.01147     0.00015
 PX  O  24  -0.00087     0.00016     0.00000    -0.00000    -0.00875    -0.00011
 PY  O  24   0.00222    -0.00009    -0.00243     0.00001     0.01769     0.00044
 PZ  O  24  -0.00015    -0.00019     0.00229    -0.00000    -0.00083    -0.00031
  
  S  H  25  -0.00136     0.00052     0.00028    -0.00001    -0.02935    -0.00022
  
  S  H  26  -0.00158    -0.00008     0.00750    -0.00001    -0.02969    -0.00069
  
  S  O  27  -0.00000    -0.00000     0.00000    -0.00001     0.00000    -0.00008
 PX  O  27   0.00000     0.00000    -0.00000     0.00001    -0.00000     0.00008
 PY  O  27  -0.00000    -0.00000     0.00000    -0.00001     0.00000    -0.00031
 PZ  O  27  -0.00000     0.00000     0.00000     0.00001     0.00000    -0.00017
  
  S  H  28   0.00000     0.00000    -0.00000     0.00001    -0.00000    -0.00003
  
  S  H  29   0.00000     0.00000    -0.00000     0.00000    -0.00000     0.00055
  
  S  O  30  -0.00005     0.00001    -0.00000     0.00002     0.00000    -0.00257
 PX  O  30  -0.00000     0.00001     0.00001     0.00001     0.00000    -0.00287
 PY  O  30  -0.00004    -0.00000     0.00002    -0.00001     0.00000    -0.00003
 PZ  O  30  -0.00001    -0.00001     0.00001    -0.00003    -0.00000     0.00316
  
  S  H  31   0.00009    -0.00001     0.00001    -0.00003    -0.00001     0.00813
  
  S  H  32   0.00005    -0.00001    -0.00000    -0.00004    -0.00001     0.00751
  
  S  O  33  -0.00000     0.00000     0.00000    -0.00000     0.00000     0.00064
 PX  O  33   0.00000    -0.00000    -0.00001     0.00001     0.00000    -0.00118
 PY  O  33  -0.00000     0.00000     0.00000    -0.00000     0.00000     0.00011
 PZ  O  33  -0.00000    -0.00000    -0.00000     0.00000     0.00000    -0.00079
  
  S  H  34   0.00000    -0.00000    -0.00000     0.00000    -0.00000    -0.00068
  
  S  H  35   0.00000    -0.00001    -0.00001     0.00001     0.00000    -0.00346
  
  S  O  36  -0.00000    -0.00000    -0.00002    -0.00018     0.00000     0.00038
 PX  O  36   0.00000    -0.00000     0.00002     0.00001     0.00000     0.00009
 PY  O  36  -0.00000    -0.00001    -0.00004    -0.00026     0.00000     0.00041
 PZ  O  36  -0.00000    -0.00000     0.00001     0.00003     0.00000     0.00059
  
  S  H  37   0.00000     0.00001     0.00002     0.00026    -0.00000    -0.00095
  
  S  H  38   0.00000     0.00001     0.00004     0.00053     0.00000    -0.00052
  
  S  O  39   0.00000    -0.00000    -0.00029     0.00108     0.00000     0.00003
 PX  O  39  -0.00000     0.00000     0.00017    -0.00141    -0.00000    -0.00002
 PY  O  39   0.00000    -0.00000    -0.00082     0.00114     0.00000    -0.00001
 PZ  O  39   0.00000    -0.00000    -0.00019     0.00012     0.00000     0.00003
  
  S  H  40  -0.00000     0.00000     0.00093    -0.00284    -0.00000    -0.00004
  
  S  H  41  -0.00000     0.00000     0.00024    -0.00279    -0.00000    -0.00006
  
  S  O  42   0.00000    -0.00000    -0.00001    -0.00001     0.00000     0.00551
 PX  O  42  -0.00000    -0.00001    -0.00000    -0.00002     0.00000     0.00341
 PY  O  42   0.00000    -0.00000    -0.00002    -0.00001     0.00000     0.00864
 PZ  O  42   0.00000    -0.00000    -0.00002    -0.00000     0.00000     0.00985
  
  S  H  43   0.00000     0.00000     0.00000     0.00005    -0.00000    -0.00534
  
  S  H  44  -0.00000     0.00005     0.00003     0.00003    -0.00001    -0.03339
  
  S  O  45  -0.00081     0.00000    -0.00001     0.00001     0.00003    -0.00117
 PX  O  45   0.00065     0.00000     0.00003     0.00000    -0.00004    -0.00102
 PY  O  45   0.00106    -0.00000     0.00001    -0.00001    -0.00004     0.00155
 PZ  O  45  -0.00070     0.00000    -0.00001     0.00000     0.00003     0.00007
  
  S  H  46   0.00070    -0.00001    -0.00002    -0.00002    -0.00003     0.00433
  
  S  H  47   0.00367    -0.00001     0.00002    -0.00002    -0.00010     0.00214
  
  S  O  48   0.01728     0.00000    -0.00005     0.00001     0.00060    -0.00000
 PX  O  48   0.79325     0.00000    -0.00051     0.00001     0.00062    -0.00002
 PY  O  48   0.15827     0.00000     0.00003    -0.00000     0.00007     0.00000
 PZ  O  48   0.58104    -0.00000     0.00015    -0.00001    -0.00103     0.00001
  
  S  H  49  -0.00028    -0.00000    -0.00006    -0.00001    -0.00073     0.00000
  
  S  H  50  -0.00062    -0.00000     0.00077    -0.00002    -0.00219    -0.00000
  
  S  O  51  -0.00000    -0.00000    -0.00004    -0.00201    -0.00000     0.00021
 PX  O  51  -0.00000    -0.00000    -0.00004    -0.05485    -0.00000     0.00004
 PY  O  51  -0.00000    -0.00000    -0.00012     0.05274    -0.00000     0.00047
 PZ  O  51  -0.00000    -0.00000     0.00004     0.99689    -0.00000     0.00014
  
  S  H  52   0.00000     0.00000     0.00005    -0.00016     0.00000    -0.00033
  
  S  H  53   0.00000     0.00000     0.00009    -0.00009     0.00000    -0.00044
  
  S  O  54   0.00001    -0.00000    -0.00181     0.00017     0.00001    -0.00006
 PX  O  54  -0.00001     0.00000     0.00162    -0.00014    -0.00000     0.00005
 PY  O  54   0.00001    -0.00000    -0.00205     0.00001     0.00000    -0.00007
 PZ  O  54   0.00001    -0.00000    -0.00158    -0.00010     0.00001    -0.00005
  
  S  H  55  -0.00001     0.00000     0.00301    -0.00023    -0.00001     0.00012
  
  S  H  56  -0.00001     0.00000     0.00387    -0.00030    -0.00001     0.00015
  
  S  O  57   0.01559    -0.00000     0.00449     0.00001     0.00657     0.00004
 PX  O  57   0.02556     0.00000     0.00564     0.00002    -0.60016     0.00008
 PY  O  57   0.02135     0.00001     0.00329     0.00001     0.78965     0.00003
 PZ  O  57   0.01446    -0.00000    -0.00768    -0.00002    -0.11804    -0.00009
  
  S  H  58  -0.01549    -0.00000    -0.02190    -0.00003     0.00074    -0.00016
  
  S  H  59  -0.07723    -0.00000    -0.00243    -0.00001    -0.00043    -0.00005
  
  S  O  60  -0.00000     0.00001     0.00000     0.00000     0.00000    -0.00028
 PX  O  60   0.00000     0.00000     0.00000     0.00000    -0.00000    -0.00024
 PY  O  60  -0.00001     0.00000    -0.00000     0.00000     0.00000    -0.00056
 PZ  O  60   0.00001    -0.00001    -0.00001    -0.00000    -0.00000     0.00016
  
  S  H  61   0.00000    -0.00001    -0.00001    -0.00000    -0.00000     0.00091
  
  S  H  62   0.00001    -0.00001    -0.00001    -0.00000    -0.00000     0.00027
  
  S  O  63   0.00006    -0.00012    -0.00008     0.00000     0.00061    -0.00046
 PX  O  63  -0.00002    -0.60395     0.00002    -0.00000    -0.00016    -0.00047
 PY  O  63   0.00016     0.18150    -0.00019     0.00000     0.00148    -0.00085
 PZ  O  63  -0.00005     0.77597     0.00006    -0.00000    -0.00046    -0.00002
  
  S  H  64  -0.00014     0.00007     0.00026    -0.00000    -0.00180     0.00097
  
  S  H  65  -0.00003     0.00002     0.00004     0.00000    -0.00033     0.00115
  
  S  O  66   0.00000     0.00009    -0.00001    -0.00000     0.00000    -0.00036
 PX  O  66  -0.00000    -0.00003     0.00000     0.00000    -0.00000     0.00000
 PY  O  66   0.00000     0.00017    -0.00001    -0.00001     0.00000    -0.00069
 PZ  O  66   0.00000     0.00001     0.00000     0.00000     0.00000     0.00016
  
  S  H  67  -0.00000    -0.00030     0.00002     0.00001    -0.00000     0.00232
  
  S  H  68  -0.00000    -0.00015     0.00001     0.00000    -0.00000     0.00018
  
  S  H  69   0.00006    -0.00000     0.05552     0.00008     0.00035    -0.00045
  
  S  H  70   0.00002    -0.00000    -0.00159    -0.00031     0.00000    -0.00146




    ROOT NO.   91          92          93

           -11.55133   -11.43487   -11.34519
  
  
  S  C   1   0.00002     0.00010    -0.00113
 PX  C   1  -0.00112    -0.00006    -0.00313
 PY  C   1  -0.00131    -0.00023    -0.00280
 PZ  C   1  -0.00073     0.00001    -0.00163
  
  S  O   2  -0.00019    -0.00011    -0.00019
 PX  O   2   0.00028    -0.00000     0.00037
 PY  O   2   0.00021    -0.00011     0.00043
 PZ  O   2   0.00073    -0.00006     0.00082
  
  S  N   3   0.00095    -0.00002     0.00335
 PX  N   3   0.00095     0.00003     0.00246
 PY  N   3  -0.00152     0.00006    -0.00125
 PZ  N   3  -0.00001     0.00003     0.00154
  
  S  H   4  -0.00161     0.00003    -0.00366
  
  S  C   5  -0.01032    -0.00003    -0.02213
 PX  C   5  -0.00055     0.00002     0.00115
 PY  C   5   0.01220    -0.00005     0.02073
 PZ  C   5   0.00153    -0.00013     0.00957
  
  S  H   6   0.00395     0.00014     0.00842
  
  S  C   7   0.00253    -0.00001     0.00754
 PX  C   7  -0.00315     0.00001    -0.00280
 PY  C   7   0.00027     0.00001     0.02816
 PZ  C   7  -0.00292     0.00001     0.01412
  
  S  H   8   0.00615    -0.00005     0.01172
  
  S  H   9   0.00444    -0.00001     0.00197
  
  S  C  10  -0.00212     0.00014     0.00357
 PX  C  10   0.00689    -0.00018     0.01384
 PY  C  10   0.14549    -0.00058     0.45529
 PZ  C  10   0.14076    -0.00038     0.44472
  
  S  C  11   0.00163    -0.00002    -0.00489
 PX  C  11  -0.04058    -0.00030    -0.01322
 PY  C  11   0.41427     0.00016     0.11861
 PZ  C  11   0.50399     0.00039     0.14580
  
  S  H  12   0.00609    -0.00028     0.00398
  
  S  C  13   0.05199    -0.00024    -0.00699
 PX  C  13  -0.12321    -0.00008     0.02619
 PY  C  13   0.40838     0.00005    -0.08413
 PZ  C  13   0.51862    -0.00014    -0.11591
  
  S  H  14  -0.01338     0.00001     0.00453
  
  S  C  15  -0.00899     0.00015     0.00687
 PX  C  15  -0.01874    -0.00015     0.01397
 PY  C  15   0.13543    -0.00038    -0.11260
 PZ  C  15   0.11705    -0.00042    -0.08799
  
  S  H  16  -0.00152     0.00002    -0.00194
  
  S  C  17  -0.00101    -0.00001    -0.00096
 PX  C  17  -0.00607     0.00001     0.03033
 PY  C  17  -0.09514     0.00023     0.48851
 PZ  C  17  -0.09460     0.00023     0.47074
  
  S  H  18   0.00011     0.00002    -0.00052
  
  S  C  19   0.00570    -0.00002     0.00018
 PX  C  19   0.00268    -0.00001    -0.00346
 PY  C  19  -0.12472     0.00038     0.17765
 PZ  C  19  -0.10246     0.00033     0.14743
  
  S  H  20  -0.00093     0.00003    -0.00024
  
  S  O  21   0.00001    -0.00000     0.00002
 PX  O  21  -0.00001     0.00000    -0.00003
 PY  O  21  -0.00001     0.00000    -0.00004
 PZ  O  21   0.00001    -0.00000     0.00002
  
  S  H  22  -0.00002     0.00000    -0.00006
  
  S  H  23  -0.00001     0.00000    -0.00005
  
  S  O  24  -0.00122    -0.00296    -0.00018
 PX  O  24   0.00080     0.78872    -0.00008
 PY  O  24  -0.00198     0.41403    -0.00047
 PZ  O  24   0.00059     0.45427     0.00042
  
  S  H  25   0.00261    -0.00010     0.00016
  
  S  H  26   0.00495     0.00016     0.00054
  
  S  O  27   0.00004    -0.00000    -0.00009
 PX  O  27  -0.00005     0.00000     0.00020
 PY  O  27   0.00018    -0.00000    -0.00038
 PZ  O  27   0.00013    -0.00000    -0.00032
  
  S  H  28   0.00008     0.00000    -0.00024
  
  S  H  29  -0.00039     0.00000     0.00113
  
  S  O  30   0.00161    -0.00001    -0.00339
 PX  O  30   0.00108    -0.00000    -0.00400
 PY  O  30  -0.00070     0.00000    -0.00006
 PZ  O  30  -0.00216     0.00001     0.00325
  
  S  H  31  -0.00437     0.00002     0.00913
  
  S  H  32  -0.00469     0.00002     0.01327
  
  S  O  33  -0.00025     0.00000     0.00043
 PX  O  33   0.00051    -0.00000    -0.00083
 PY  O  33  -0.00008    -0.00000     0.00013
 PZ  O  33   0.00033    -0.00000    -0.00055
  
  S  H  34   0.00030    -0.00000    -0.00058
  
  S  H  35   0.00117    -0.00000    -0.00205
  
  S  O  36  -0.00040     0.00000     0.00124
 PX  O  36  -0.00015    -0.00000     0.00096
 PY  O  36  -0.00046     0.00000     0.00124
 PZ  O  36  -0.00044     0.00000     0.00068
  
  S  H  37   0.00114    -0.00000    -0.00508
  
  S  H  38   0.00072    -0.00000    -0.00229
  
  S  O  39  -0.00003     0.00000    -0.00005
 PX  O  39   0.00001    -0.00000     0.00005
 PY  O  39   0.00001    -0.00000     0.00001
 PZ  O  39  -0.00003     0.00000    -0.00002
  
  S  H  40   0.00004    -0.00000     0.00011
  
  S  H  41   0.00005    -0.00000     0.00015
  
  S  O  42   0.00394    -0.00001    -0.00061
 PX  O  42   0.00225    -0.00001    -0.00015
 PY  O  42   0.00633    -0.00002    -0.00139
 PZ  O  42   0.00749    -0.00002    -0.00179
  
  S  H  43  -0.00288     0.00001    -0.00014
  
  S  H  44  -0.02472     0.00005     0.00406
  
  S  O  45   0.00028    -0.00003    -0.00178
 PX  O  45   0.00082     0.00003    -0.00148
 PY  O  45  -0.00042     0.00004     0.00227
 PZ  O  45  -0.00029    -0.00003     0.00004
  
  S  H  46  -0.00179     0.00003     0.00711
  
  S  H  47   0.00052     0.00014     0.00320
  
  S  O  48  -0.00005    -0.00017    -0.00007
 PX  O  48  -0.00005     0.00002    -0.00011
 PY  O  48   0.00002     0.00002     0.00003
 PZ  O  48   0.00009     0.00025     0.00015
  
  S  H  49   0.00003     0.00015     0.00004
  
  S  H  50   0.00021     0.00041     0.00026
  
  S  O  51  -0.00023     0.00000    -0.00019
 PX  O  51  -0.00005    -0.00000     0.00025
 PY  O  51  -0.00055     0.00000    -0.00038
 PZ  O  51  -0.00020     0.00000     0.00006
  
  S  H  52   0.00035    -0.00000     0.00010
  
  S  H  53   0.00035    -0.00000     0.00110
  
  S  O  54   0.00005    -0.00000     0.00012
 PX  O  54  -0.00005     0.00000    -0.00011
 PY  O  54   0.00007    -0.00000     0.00016
 PZ  O  54   0.00006    -0.00000     0.00008
  
  S  H  55  -0.00010     0.00000    -0.00027
  
  S  H  56  -0.00013     0.00000    -0.00039
  
  S  O  57  -0.00015    -0.00103    -0.00006
 PX  O  57  -0.00022    -0.00150    -0.00010
 PY  O  57  -0.00004    -0.00104    -0.00004
 PZ  O  57   0.00019     0.00051     0.00011
  
  S  H  58   0.00044     0.00299     0.00021
  
  S  H  59   0.00023     0.00264     0.00006
  
  S  O  60   0.00015    -0.00000    -0.00022
 PX  O  60   0.00007     0.00000    -0.00001
 PY  O  60   0.00032    -0.00000    -0.00051
 PZ  O  60  -0.00009     0.00000     0.00012
  
  S  H  61  -0.00046     0.00000     0.00055
  
  S  H  62  -0.00021     0.00000     0.00008
  
  S  O  63  -0.00133    -0.00229     0.00035
 PX  O  63  -0.00050     0.00027     0.00033
 PY  O  63  -0.00208    -0.00436     0.00063
 PZ  O  63   0.00000     0.00123     0.00000
  
  S  H  64   0.00492     0.00926    -0.00094
  
  S  H  65   0.00276     0.00145    -0.00079
  
  S  O  66   0.00007    -0.00000     0.00008
 PX  O  66  -0.00001     0.00000    -0.00001
 PY  O  66  -0.00000    -0.00001     0.00020
 PZ  O  66   0.00007    -0.00000    -0.00005
  
  S  H  67  -0.00045     0.00000    -0.00043
  
  S  H  68  -0.00020     0.00000    -0.00003
  
  S  H  69   0.00039    -0.00003     0.00097
  
  S  H  70   0.00207    -0.00001     0.00200

          BONDING CONTRIBUTION OF EACH M.O.

  1.8123  1.6811  1.9081  1.8774  1.6232  1.6887  1.7509  1.7280  0.0043  1.6496
  1.6065  1.7413  1.5887  0.0207  1.6881  0.0010  1.6854  0.0392  1.6705  1.7141
  0.0030  1.7038  0.0255  0.0354  1.7043  1.7296  0.0000  1.6209  1.9967  0.0135
  0.0001  1.7080  0.0216  1.7728  1.9980  1.6145  1.7554  1.5850  1.7337  1.6023
  1.9896  1.6215  1.7216  1.6545  1.9978  1.6783  0.0008  0.0039  1.7121  0.0009
  1.7188  0.0002  1.8871  1.9974  1.7027  0.0087  1.9899  1.7310  0.0008  1.9909
  1.6558  1.9445  1.9923  1.9369  1.9578  1.9589  1.9685  1.9389  1.9610  1.9342
  1.9271  0.0656  0.0418  0.0473  0.0002  0.0564  1.1007  0.0007  0.0003  0.9648
  0.0224  0.0221  0.0000  0.0014  0.0496  0.0011  0.2427  0.0025  0.0145  1.9570
  2.0017  0.0009  2.0216 -2.0114 -1.9919 -2.0090 -1.8679 -1.7872 -1.9968 -1.8081
 -1.6908 -1.7370 -1.7378 -1.6994 -1.6726 -1.9375 -1.7353 -1.7052 -1.7634 -1.9896
 -1.9049 -1.6893 -1.8253 -1.7908 -1.8792 -1.7895 -1.8957 -1.9588 -1.9788 -1.7841
 -1.7380 -1.9701 -1.7030 -1.6678 -1.8931 -1.8986 -1.8081 -1.6922 -1.7483 -1.8685
 -1.8086 -1.9143 -1.9298 -1.6234 -1.8136 -1.9289 -1.7386 -1.9137 -1.8001 -1.7852
 -1.7266 -1.9347 -1.7438 -1.6702 -1.8357 -1.8977 -1.7422 -1.7444 -1.7341 -1.6780
 -1.7144

           DATA FOR GRAPH WRITTEN TO DISK

 **********************
 *                    *
 * JOB ENDED NORMALLY *
 *                    *
 **********************



 TOTAL JOB TIME:             0.70 SECONDS

 == MOPAC DONE ==
