 *******************************************************************************
 ** Site#: 34139        For non-commercial use only    Version 20.015L 64BITS **
 *******************************************************************************
 ** Cite this program as: MOPAC2016, Version: 20.015L, James J. P. Stewart,   **
 ** Stewart Computational Chemistry, web: HTTP://OpenMOPAC.net. Days left: 276**
 *******************************************************************************
 **                                                                           **
 **                                MOPAC2016                                  **
 **                                                                           **
 *******************************************************************************

                              PM7 CALCULATION RESULTS

 *******************************************************************************
 *  CALCULATION DONE:                                Tue Apr 14 21:12:34 2020  *
 *  PM7        - The PM7 Hamiltonian to be used
 *  QMMM       - Generate energies and gradients for use in MM codes
 *  DIPOLE     - PRINT DIPOLE INSTEAD OF ENERGY IN TRAJECTORIES
 *  GEO-OK     - OVERRIDE INTERATOMIC DISTANCE AND OTHER SAFETY CHECKS
 *
 *
 *
 *                 CHARGE ON SYSTEM = 0
 *
 *
 *
 *  LET        - OVERRIDE SOME SAFETY CHECKS
 *  XYZ        - CARTESIAN COORDINATE SYSTEM TO BE USED
 *  FORCE      - FORCE CALCULATION SPECIFIED
 *  1SCF       - DO 1 SCF AND THEN STOP 
 *  T=         - A TIME OF      2.0 MINUTES REQUESTED
 *  DUMP=N     - RESTART FILE WRITTEN EVERY  7200.000 SECONDS
 *  CUTOFF=    - CUTOFF FOR NDDO AND DIPOLE INTERACTIONS =  9.00A
 *  AUX        - OUTPUT AUXILIARY INFORMATION
 *  GRADIENTS  - ALL GRADIENTS TO BE PRINTED
 *  VECTORS    - FINAL EIGENVECTORS TO BE PRINTED
 *  EIGEN      - CONVERT LMO's INTO EIGENVECTORS
 *  LARGE      - EXPANDED OUTPUT TO BE PRINTED
 *  AIGOUT     - IN ARC FILE, INCLUDE AB-INITIO GEOMETRY
 *  GRAPH      - GENERATE FILE FOR GRAPHICS
 *  ALLVEC     - PRINT ALL EIGENVECTORS
 *  LOCALIZE   - LOCALIZED ORBITALS TO BE PRINTED
 *  PI         - BONDS MATRIX, SPLIT INTO SIGMA-PI-DELL COMPONENTS, TO BE PRINTED
 *******************************************************************************
PM7 XYZ T=2M 1SCF LOCALIZE AIGOUT GRAPH GRAPHF LARGE DIPOLE PI FORCE CUTOFF=9.0 AUX LET GRAD QMMM GEO-OK EIGEN VECTORS ALLVEC CHARGE=0
 Test System

   ATOM   CHEMICAL          X               Y               Z
  NUMBER   SYMBOL      (ANGSTROMS)     (ANGSTROMS)     (ANGSTROMS)
 
     1       C         -3.42927600  *   0.65401400  *   0.56652000  *
     2       O         -3.62247400  *  -0.46291500  *   1.07411100  *
     3       N         -2.23857900  *   0.99166400  *   0.15764400  *
     4       H         -2.16205300  *   1.95570700  *  -0.39167200  *
     5       C         -0.96687100  *   0.20122300  *   0.40748600  *
     6       H         -0.90002000  *  -0.08663600  *   1.42744300  *
     7       C         -0.99344300  *  -1.14543300  *  -0.45911400  *
     8       H         -1.88660300  *  -1.68399900  *  -0.01167200  *
     9       H         -1.30711400  *  -0.90449100  *  -1.48931800  *
    10       C          0.22896700  *  -1.93424200  *  -0.48248500  *
    11       C          1.14607900  *  -1.83539500  *  -1.52525100  *
    12       H          0.97221300  *  -1.11432500  *  -2.27011700  *
    13       C          2.32397600  *  -2.59061300  *  -1.52617200  *
    14       H          3.14314900  *  -2.27675000  *  -2.12245200  *
    15       C          2.57446400  *  -3.52021800  *  -0.54964000  *
    16       H          3.56309000  *  -4.01837000  *  -0.48548000  *
    17       C          0.49748200  *  -2.75674600  *   0.57069100  *
    18       H         -0.27752300  *  -2.80291400  *   1.35796700  *
    19       C          1.65108700  *  -3.62211200  *   0.53296100  *
    20       H          1.75921800  *  -4.33864400  *   1.36194700  *
    21       O          4.54550500  *  -6.62461300  *  -1.36204400  *
    22       H          5.45354400  *  -6.48031200  *  -0.96120500  *
    23       H          4.46099900  *  -7.64284500  *  -1.45610900  *
    24       O         -4.08803800  *  -3.66464200  *   1.55743000  *
    25       H         -4.07753000  *  -4.02115600  *   0.62681500  *
    26       H         -4.61106700  *  -2.85561300  *   1.60607100  *
    27       O         -0.61310900  *  -6.07164000  *  -0.03991600  *
    28       H         -0.96810600  *  -6.85495500  *   0.43432600  *
    29       H         -0.82340300  *  -5.44946200  *   0.68938300  *
    30       O         -2.05805800  *   0.56047300  *  -3.97207400  *
    31       H         -2.52361100  *   1.05534800  *  -3.37588100  *
    32       H         -1.87466300  *   1.23034600  *  -4.63411800  *
    33       O         -5.77571000  *  -1.56063500  *   2.01859300  *
    34       H         -6.30828000  *  -2.17179800  *   2.59516500  *
    35       H         -5.33999300  *  -0.94340000  *   2.64444700  *
    36       O          0.77151600  *  -2.81514800  *   5.60537200  *
    37       H          0.27743200  *  -3.60981500  *   5.48508000  *
    38       H         -0.04214400  *  -2.18883500  *   5.84041300  *
    39       O         -2.17578500  *   3.28988400  *  -2.27729200  *
    40       H         -2.52501600  *   3.23097700  *  -3.15095200  *
    41       H         -2.76378500  *   3.56050500  *  -1.61190200  *
    42       O         -0.40091800  *   0.48262100  *   3.83919100  *
    43       H         -0.60431600  *   1.40693500  *   4.15519500  *
    44       H          0.52772000  *   0.39750400  *   3.79470300  *
    45       O         -1.89894400  *  -3.71788600  *   3.09987800  *
    46       H         -2.69421500  *  -3.72339400  *   2.52979800  *
    47       H         -1.64330700  *  -2.72384100  *   3.09124200  *
    48       O         -1.58410700  *  -3.12753900  *  -2.98480400  *
    49       H         -1.68052800  *  -2.87618300  *  -3.89714200  *
    50       H         -1.76209100  *  -2.35585000  *  -2.43949200  *
    51       O         -2.42996700  *  -1.15831600  *   3.21976100  *
    52       H         -2.78289700  *  -0.97855500  *   2.31219900  *
    53       H         -1.74670800  *  -0.56418900  *   3.49996200  *
    54       O         -0.55789500  *   4.35558200  *   1.13965100  *
    55       H         -1.56832300  *   4.35269500  *   0.82856500  *
    56       H         -0.15292400  *   4.27872300  *   0.24695800  *
    57       H         -4.25482100  *   1.35398700  *   0.43762600  *
    58       H         -0.12378000  *   0.84078500  *   0.14622400  *
 


          CARTESIAN COORDINATES 

    NO.       ATOM           X           Y           Z

     1         C         -3.4293      0.6540      0.5665
     2         O         -3.6225     -0.4629      1.0741
     3         N         -2.2386      0.9917      0.1576
     4         H         -2.1621      1.9557     -0.3917
     5         C         -0.9669      0.2012      0.4075
     6         H         -0.9000     -0.0866      1.4274
     7         C         -0.9934     -1.1454     -0.4591
     8         H         -1.8866     -1.6840     -0.0117
     9         H         -1.3071     -0.9045     -1.4893
    10         C          0.2290     -1.9342     -0.4825
    11         C          1.1461     -1.8354     -1.5253
    12         H          0.9722     -1.1143     -2.2701
    13         C          2.3240     -2.5906     -1.5262
    14         H          3.1431     -2.2767     -2.1225
    15         C          2.5745     -3.5202     -0.5496
    16         H          3.5631     -4.0184     -0.4855
    17         C          0.4975     -2.7567      0.5707
    18         H         -0.2775     -2.8029      1.3580
    19         C          1.6511     -3.6221      0.5330
    20         H          1.7592     -4.3386      1.3619
    21         O          4.5455     -6.6246     -1.3620
    22         H          5.4535     -6.4803     -0.9612
    23         H          4.4610     -7.6428     -1.4561
    24         O         -4.0880     -3.6646      1.5574
    25         H         -4.0775     -4.0212      0.6268
    26         H         -4.6111     -2.8556      1.6061
    27         O         -0.6131     -6.0716     -0.0399
    28         H         -0.9681     -6.8550      0.4343
    29         H         -0.8234     -5.4495      0.6894
    30         O         -2.0581      0.5605     -3.9721
    31         H         -2.5236      1.0553     -3.3759
    32         H         -1.8747      1.2303     -4.6341
    33         O         -5.7757     -1.5606      2.0186
    34         H         -6.3083     -2.1718      2.5952
    35         H         -5.3400     -0.9434      2.6444
    36         O          0.7715     -2.8151      5.6054
    37         H          0.2774     -3.6098      5.4851
    38         H         -0.0421     -2.1888      5.8404
    39         O         -2.1758      3.2899     -2.2773
    40         H         -2.5250      3.2310     -3.1510
    41         H         -2.7638      3.5605     -1.6119
    42         O         -0.4009      0.4826      3.8392
    43         H         -0.6043      1.4069      4.1552
    44         H          0.5277      0.3975      3.7947
    45         O         -1.8989     -3.7179      3.0999
    46         H         -2.6942     -3.7234      2.5298
    47         H         -1.6433     -2.7238      3.0912
    48         O         -1.5841     -3.1275     -2.9848
    49         H         -1.6805     -2.8762     -3.8971
    50         H         -1.7621     -2.3559     -2.4395
    51         O         -2.4300     -1.1583      3.2198
    52         H         -2.7829     -0.9786      2.3122
    53         H         -1.7467     -0.5642      3.5000
    54         O         -0.5579      4.3556      1.1397
    55         H         -1.5683      4.3527      0.8286
    56         H         -0.1529      4.2787      0.2470
    57         H         -4.2548      1.3540      0.4376
    58         H         -0.1238      0.8408      0.1462

 General Reference for PM7:
 "Optimization of Parameters for Semiempirical Methods VI: More Modifications to the 
 NDDO Approximations and Re-optimization of Parameters", J. J. P. Stewart, J. Mol. Mod., 1:32, 19 (2013)
 http://www.springerlink.com/openurl.asp?genre=article&id=doi:10.1007/s00894-012-1667-x

           Empirical Formula: C9 H35 N O13  =    58 atoms



      MOLECULAR POINT GROUP   :   C1  


      RHF CALCULATION, NO. OF DOUBLY OCCUPIED LEVELS = 77


 -------------------------------------------------------------------------------
 PM7 XYZ T=2M 1SCF LOCALIZE AIGOUT GRAPH GRAPHF LARGE DIPOLE PI FORCE CUTOFF=9.0 AUX LET GRAD QMMM GEO-OK EIGEN VECTORS ALLVEC CHARGE=0
 Test System



     1SCF WAS SPECIFIED, SO BFGS WAS NOT USED                 
     SCF FIELD WAS ACHIEVED                                   


                              PM7 CALCULATION
                                                       MOPAC2016 (Version: 20.015L)
                                                       Tue Apr 14 21:12:34 2020
                                                       No. of days remaining = 276




          FINAL HEAT OF FORMATION =       -925.36693 KCAL/MOL =   -3871.73523 KJ/MOL


          TOTAL ENERGY            =      -5614.86614 EV
          ELECTRONIC ENERGY       =     -39883.19980 EV  POINT GROUP:     C1  
          CORE-CORE REPULSION     =      34268.33365 EV
          COSMO AREA              =        455.62 SQUARE ANGSTROMS
          COSMO VOLUME            =        561.92 CUBIC ANGSTROMS

          GRADIENT NORM           =        279.14582 = 36.65364 PER ATOM
          IONIZATION POTENTIAL    =          8.738541 EV
          HOMO LUMO ENERGIES (EV) =         -8.739  0.833
          NO. OF FILLED LEVELS    =         77
          MOLECULAR WEIGHT        =        365.3744

          MOLECULAR DIMENSIONS (Angstroms)

            Atom       Atom       Distance
            H    55    H    23    13.61857
            H    38    H    32    10.97713
            H    34    H    22     8.59203


          SCF CALCULATIONS        =          1
 
          WALL-CLOCK TIME         =          0.289 SECONDS
          COMPUTATION TIME        =          0.132 SECONDS

          LARGEST ATOMIC GRADIENTS

          Atom     Label                     Cartesian Gradients           Cartesian Coordinates       |Gradient|
                                           X          Y          Z        X          Y          Z

             3       N                 -86.463    -57.460     43.301   -2.23858    0.99166    0.15764    112.483
            17       C                 -34.553     65.316    -23.082    0.49748   -2.75675    0.57069     77.413
            15       C                  13.476     12.069    -68.160    2.57446   -3.52022   -0.54964     70.520
            54       O                  51.167      5.672     44.432   -0.55790    4.35558    1.13965     68.003
             1       C                  44.210     42.910    -25.246   -3.42928    0.65401    0.56652     66.582
             7       C                  47.432    -44.875     -9.456   -0.99344   -1.14543   -0.45911     65.977
            36       O                  45.214    -35.453    -18.924    0.77152   -2.81515    5.60537     60.492
             5       C                  34.140      4.065     45.364   -0.96687    0.20122    0.40749     56.920
            55       H                 -47.292     -3.953    -26.083   -1.56832    4.35269    0.82856     54.153
             4       H                 -16.266     46.055    -21.175   -2.16205    1.95571   -0.39167     53.236
            21       O                 -25.788     40.987     -7.591    4.54551   -6.62461   -1.36204     49.016



       FINAL  POINT  AND  DERIVATIVES

   PARAMETER     ATOM    TYPE            VALUE        GRADIENT
      1          1  C    CARTESIAN X    -3.429276     44.209833  KCAL/ANGSTROM
      2          1  C    CARTESIAN Y     0.654014     42.909783  KCAL/ANGSTROM
      3          1  C    CARTESIAN Z     0.566520    -25.246023  KCAL/ANGSTROM
      4          2  O    CARTESIAN X    -3.622474      8.571669  KCAL/ANGSTROM
      5          2  O    CARTESIAN Y    -0.462915    -10.877742  KCAL/ANGSTROM
      6          2  O    CARTESIAN Z     1.074111      2.747225  KCAL/ANGSTROM
      7          3  N    CARTESIAN X    -2.238579    -86.462888  KCAL/ANGSTROM
      8          3  N    CARTESIAN Y     0.991664    -57.459517  KCAL/ANGSTROM
      9          3  N    CARTESIAN Z     0.157644     43.300596  KCAL/ANGSTROM
     10          4  H    CARTESIAN X    -2.162053    -16.266125  KCAL/ANGSTROM
     11          4  H    CARTESIAN Y     1.955707     46.055284  KCAL/ANGSTROM
     12          4  H    CARTESIAN Z    -0.391672    -21.175097  KCAL/ANGSTROM
     13          5  C    CARTESIAN X    -0.966871     34.139703  KCAL/ANGSTROM
     14          5  C    CARTESIAN Y     0.201223      4.065453  KCAL/ANGSTROM
     15          5  C    CARTESIAN Z     0.407486     45.364036  KCAL/ANGSTROM
     16          6  H    CARTESIAN X    -0.900020     -0.735815  KCAL/ANGSTROM
     17          6  H    CARTESIAN Y    -0.086636      4.278152  KCAL/ANGSTROM
     18          6  H    CARTESIAN Z     1.427443    -27.693003  KCAL/ANGSTROM
     19          7  C    CARTESIAN X    -0.993443     47.431780  KCAL/ANGSTROM
     20          7  C    CARTESIAN Y    -1.145433    -44.874598  KCAL/ANGSTROM
     21          7  C    CARTESIAN Z    -0.459114     -9.455568  KCAL/ANGSTROM
     22          8  H    CARTESIAN X    -1.886603    -10.416290  KCAL/ANGSTROM
     23          8  H    CARTESIAN Y    -1.683999      6.614859  KCAL/ANGSTROM
     24          8  H    CARTESIAN Z    -0.011672      6.113296  KCAL/ANGSTROM
     25          9  H    CARTESIAN X    -1.307114      2.250535  KCAL/ANGSTROM
     26          9  H    CARTESIAN Y    -0.904491     -4.684594  KCAL/ANGSTROM
     27          9  H    CARTESIAN Z    -1.489318      3.624608  KCAL/ANGSTROM
     28         10  C    CARTESIAN X     0.228967    -14.736255  KCAL/ANGSTROM
     29         10  C    CARTESIAN Y    -1.934242    -12.543669  KCAL/ANGSTROM
     30         10  C    CARTESIAN Z    -0.482485     10.943447  KCAL/ANGSTROM
     31         11  C    CARTESIAN X     1.146079    -12.093618  KCAL/ANGSTROM
     32         11  C    CARTESIAN Y    -1.835395      6.284706  KCAL/ANGSTROM
     33         11  C    CARTESIAN Z    -1.525251     -4.841962  KCAL/ANGSTROM
     34         12  H    CARTESIAN X     0.972213      1.884869  KCAL/ANGSTROM
     35         12  H    CARTESIAN Y    -1.114325    -12.522846  KCAL/ANGSTROM
     36         12  H    CARTESIAN Z    -2.270117     21.516757  KCAL/ANGSTROM
     37         13  C    CARTESIAN X     2.323976     10.184978  KCAL/ANGSTROM
     38         13  C    CARTESIAN Y    -2.590613    -28.998905  KCAL/ANGSTROM
     39         13  C    CARTESIAN Z    -1.526172     -3.456161  KCAL/ANGSTROM
     40         14  H    CARTESIAN X     3.143149     -8.379050  KCAL/ANGSTROM
     41         14  H    CARTESIAN Y    -2.276750      2.224472  KCAL/ANGSTROM
     42         14  H    CARTESIAN Z    -2.122452     26.241859  KCAL/ANGSTROM
     43         15  C    CARTESIAN X     2.574464     13.476151  KCAL/ANGSTROM
     44         15  C    CARTESIAN Y    -3.520218     12.068653  KCAL/ANGSTROM
     45         15  C    CARTESIAN Z    -0.549640    -68.159715  KCAL/ANGSTROM
     46         16  H    CARTESIAN X     3.563090     16.474420  KCAL/ANGSTROM
     47         16  H    CARTESIAN Y    -4.018370      4.630353  KCAL/ANGSTROM
     48         16  H    CARTESIAN Z    -0.485480      3.882860  KCAL/ANGSTROM
     49         17  C    CARTESIAN X     0.497482    -34.553218  KCAL/ANGSTROM
     50         17  C    CARTESIAN Y    -2.756746     65.315836  KCAL/ANGSTROM
     51         17  C    CARTESIAN Z     0.570691    -23.081683  KCAL/ANGSTROM
     52         18  H    CARTESIAN X    -0.277523    -16.852036  KCAL/ANGSTROM
     53         18  H    CARTESIAN Y    -2.802914      7.906272  KCAL/ANGSTROM
     54         18  H    CARTESIAN Z     1.357967     -3.380491  KCAL/ANGSTROM
     55         19  C    CARTESIAN X     1.651087     23.451622  KCAL/ANGSTROM
     56         19  C    CARTESIAN Y    -3.622112    -23.887170  KCAL/ANGSTROM
     57         19  C    CARTESIAN Z     0.532961     13.741921  KCAL/ANGSTROM
     58         20  H    CARTESIAN X     1.759218     -4.925313  KCAL/ANGSTROM
     59         20  H    CARTESIAN Y    -4.338644     -6.697517  KCAL/ANGSTROM
     60         20  H    CARTESIAN Z     1.361947     11.004390  KCAL/ANGSTROM
     61         21  O    CARTESIAN X     4.545505    -25.788387  KCAL/ANGSTROM
     62         21  O    CARTESIAN Y    -6.624613     40.987160  KCAL/ANGSTROM
     63         21  O    CARTESIAN Z    -1.362044     -7.591049  KCAL/ANGSTROM
     64         22  H    CARTESIAN X     5.453544     25.760543  KCAL/ANGSTROM
     65         22  H    CARTESIAN Y    -6.480312      2.658852  KCAL/ANGSTROM
     66         22  H    CARTESIAN Z    -0.961205     10.867553  KCAL/ANGSTROM
     67         23  H    CARTESIAN X     4.460999     -0.761683  KCAL/ANGSTROM
     68         23  H    CARTESIAN Y    -7.642845    -44.463239  KCAL/ANGSTROM
     69         23  H    CARTESIAN Z    -1.456109     -3.572357  KCAL/ANGSTROM
     70         24  O    CARTESIAN X    -4.088038     13.789198  KCAL/ANGSTROM
     71         24  O    CARTESIAN Y    -3.664642      4.694481  KCAL/ANGSTROM
     72         24  O    CARTESIAN Z     1.557430     20.914639  KCAL/ANGSTROM
     73         25  H    CARTESIAN X    -4.077530     -0.250642  KCAL/ANGSTROM
     74         25  H    CARTESIAN Y    -4.021156    -14.158084  KCAL/ANGSTROM
     75         25  H    CARTESIAN Z     0.626815    -23.237553  KCAL/ANGSTROM
     76         26  H    CARTESIAN X    -4.611067     -6.139473  KCAL/ANGSTROM
     77         26  H    CARTESIAN Y    -2.855613     -2.097390  KCAL/ANGSTROM
     78         26  H    CARTESIAN Z     1.606071      2.735689  KCAL/ANGSTROM
     79         27  O    CARTESIAN X    -0.613109     15.585512  KCAL/ANGSTROM
     80         27  O    CARTESIAN Y    -6.071640      7.697478  KCAL/ANGSTROM
     81         27  O    CARTESIAN Z    -0.039916    -33.656875  KCAL/ANGSTROM
     82         28  H    CARTESIAN X    -0.968106     -6.752370  KCAL/ANGSTROM
     83         28  H    CARTESIAN Y    -6.854955      3.664406  KCAL/ANGSTROM
     84         28  H    CARTESIAN Z     0.434326     16.567003  KCAL/ANGSTROM
     85         29  H    CARTESIAN X    -0.823403     -7.963291  KCAL/ANGSTROM
     86         29  H    CARTESIAN Y    -5.449462    -12.765826  KCAL/ANGSTROM
     87         29  H    CARTESIAN Z     0.689383     14.575520  KCAL/ANGSTROM
     88         30  O    CARTESIAN X    -2.058058     -8.663533  KCAL/ANGSTROM
     89         30  O    CARTESIAN Y     0.560473      1.786321  KCAL/ANGSTROM
     90         30  O    CARTESIAN Z    -3.972074     22.902717  KCAL/ANGSTROM
     91         31  H    CARTESIAN X    -2.523611     17.359795  KCAL/ANGSTROM
     92         31  H    CARTESIAN Y     1.055348     -6.463305  KCAL/ANGSTROM
     93         31  H    CARTESIAN Z    -3.375881    -36.776164  KCAL/ANGSTROM
     94         32  H    CARTESIAN X    -1.874663    -10.818082  KCAL/ANGSTROM
     95         32  H    CARTESIAN Y     1.230346      7.877202  KCAL/ANGSTROM
     96         32  H    CARTESIAN Z    -4.634118     12.919974  KCAL/ANGSTROM
     97         33  O    CARTESIAN X    -5.775710      7.086251  KCAL/ANGSTROM
     98         33  O    CARTESIAN Y    -1.560635     17.413325  KCAL/ANGSTROM
     99         33  O    CARTESIAN Z     2.018593    -20.547717  KCAL/ANGSTROM
    100         34  H    CARTESIAN X    -6.308280    -10.984467  KCAL/ANGSTROM
    101         34  H    CARTESIAN Y    -2.171798    -12.006523  KCAL/ANGSTROM
    102         34  H    CARTESIAN Z     2.595165     11.166524  KCAL/ANGSTROM
    103         35  H    CARTESIAN X    -5.339993     -2.606867  KCAL/ANGSTROM
    104         35  H    CARTESIAN Y    -0.943400      9.420695  KCAL/ANGSTROM
    105         35  H    CARTESIAN Z     2.644447     12.834909  KCAL/ANGSTROM
    106         36  O    CARTESIAN X     0.771516     45.213778  KCAL/ANGSTROM
    107         36  O    CARTESIAN Y    -2.815148    -35.452626  KCAL/ANGSTROM
    108         36  O    CARTESIAN Z     5.605372    -18.923739  KCAL/ANGSTROM
    109         37  H    CARTESIAN X     0.277432     -3.067749  KCAL/ANGSTROM
    110         37  H    CARTESIAN Y    -3.609815     15.061638  KCAL/ANGSTROM
    111         37  H    CARTESIAN Z     5.485080      8.064984  KCAL/ANGSTROM
    112         38  H    CARTESIAN X    -0.042144    -41.213368  KCAL/ANGSTROM
    113         38  H    CARTESIAN Y    -2.188835     19.997632  KCAL/ANGSTROM
    114         38  H    CARTESIAN Z     5.840413     13.858425  KCAL/ANGSTROM
    115         39  O    CARTESIAN X    -2.175785    -10.093633  KCAL/ANGSTROM
    116         39  O    CARTESIAN Y     3.289884     12.357560  KCAL/ANGSTROM
    117         39  O    CARTESIAN Z    -2.277292     -6.030049  KCAL/ANGSTROM
    118         40  H    CARTESIAN X    -2.525016      3.589308  KCAL/ANGSTROM
    119         40  H    CARTESIAN Y     3.230977     -6.782177  KCAL/ANGSTROM
    120         40  H    CARTESIAN Z    -3.150952     -1.019647  KCAL/ANGSTROM
    121         41  H    CARTESIAN X    -2.763785     12.304341  KCAL/ANGSTROM
    122         41  H    CARTESIAN Y     3.560505     -9.190164  KCAL/ANGSTROM
    123         41  H    CARTESIAN Z    -1.611902      4.557407  KCAL/ANGSTROM
    124         42  O    CARTESIAN X    -0.400918     17.712107  KCAL/ANGSTROM
    125         42  O    CARTESIAN Y     0.482621    -31.563272  KCAL/ANGSTROM
    126         42  O    CARTESIAN Z     3.839191    -13.478503  KCAL/ANGSTROM
    127         43  H    CARTESIAN X    -0.604316     -4.660052  KCAL/ANGSTROM
    128         43  H    CARTESIAN Y     1.406935     23.953511  KCAL/ANGSTROM
    129         43  H    CARTESIAN Z     4.155195      9.564514  KCAL/ANGSTROM
    130         44  H    CARTESIAN X     0.527720    -13.855641  KCAL/ANGSTROM
    131         44  H    CARTESIAN Y     0.397504      5.562771  KCAL/ANGSTROM
    132         44  H    CARTESIAN Z     3.794703      2.801892  KCAL/ANGSTROM
    133         45  O    CARTESIAN X    -1.898944    -15.483108  KCAL/ANGSTROM
    134         45  O    CARTESIAN Y    -3.717886    -23.733444  KCAL/ANGSTROM
    135         45  O    CARTESIAN Z     3.099878     10.529583  KCAL/ANGSTROM
    136         46  H    CARTESIAN X    -2.694215     -2.285374  KCAL/ANGSTROM
    137         46  H    CARTESIAN Y    -3.723394     -0.646930  KCAL/ANGSTROM
    138         46  H    CARTESIAN Z     2.529798     -8.152110  KCAL/ANGSTROM
    139         47  H    CARTESIAN X    -1.643307     18.957895  KCAL/ANGSTROM
    140         47  H    CARTESIAN Y    -2.723841     30.647365  KCAL/ANGSTROM
    141         47  H    CARTESIAN Z     3.091242     -6.042325  KCAL/ANGSTROM
    142         48  O    CARTESIAN X    -1.584107      5.416520  KCAL/ANGSTROM
    143         48  O    CARTESIAN Y    -3.127539     -5.094375  KCAL/ANGSTROM
    144         48  O    CARTESIAN Z    -2.984804     -1.842599  KCAL/ANGSTROM
    145         49  H    CARTESIAN X    -1.680528     -0.876917  KCAL/ANGSTROM
    146         49  H    CARTESIAN Y    -2.876183     -0.781910  KCAL/ANGSTROM
    147         49  H    CARTESIAN Z    -3.897142     -0.219368  KCAL/ANGSTROM
    148         50  H    CARTESIAN X    -1.762091     -2.970938  KCAL/ANGSTROM
    149         50  H    CARTESIAN Y    -2.355850      6.207088  KCAL/ANGSTROM
    150         50  H    CARTESIAN Z    -2.439492      4.057563  KCAL/ANGSTROM
    151         51  O    CARTESIAN X    -2.429967     -4.112316  KCAL/ANGSTROM
    152         51  O    CARTESIAN Y    -1.158316      1.795057  KCAL/ANGSTROM
    153         51  O    CARTESIAN Z     3.219761     -5.767762  KCAL/ANGSTROM
    154         52  H    CARTESIAN X    -2.782897     -1.562786  KCAL/ANGSTROM
    155         52  H    CARTESIAN Y    -0.978555     -1.545303  KCAL/ANGSTROM
    156         52  H    CARTESIAN Z     2.312199     -7.852444  KCAL/ANGSTROM
    157         53  H    CARTESIAN X    -1.746708      0.256478  KCAL/ANGSTROM
    158         53  H    CARTESIAN Y    -0.564189     -1.072235  KCAL/ANGSTROM
    159         53  H    CARTESIAN Z     3.499962      7.591030  KCAL/ANGSTROM
    160         54  O    CARTESIAN X    -0.557895     51.166782  KCAL/ANGSTROM
    161         54  O    CARTESIAN Y     4.355582      5.671768  KCAL/ANGSTROM
    162         54  O    CARTESIAN Z     1.139651     44.431823  KCAL/ANGSTROM
    163         55  H    CARTESIAN X    -1.568323    -47.292014  KCAL/ANGSTROM
    164         55  H    CARTESIAN Y     4.352695     -3.953462  KCAL/ANGSTROM
    165         55  H    CARTESIAN Z     0.828565    -26.083432  KCAL/ANGSTROM
    166         56  H    CARTESIAN X    -0.152924     -4.938085  KCAL/ANGSTROM
    167         56  H    CARTESIAN Y     4.278723     -2.631859  KCAL/ANGSTROM
    168         56  H    CARTESIAN Z     0.246958    -18.601306  KCAL/ANGSTROM
    169         57  H    CARTESIAN X    -4.254821     12.495404  KCAL/ANGSTROM
    170         57  H    CARTESIAN Y     1.353987     -0.318962  KCAL/ANGSTROM
    171         57  H    CARTESIAN Z     0.437626      1.743633  KCAL/ANGSTROM
    172         58  H    CARTESIAN X    -0.123780    -10.201939  KCAL/ANGSTROM
    173         58  H    CARTESIAN Y     0.840785     -2.536996  KCAL/ANGSTROM
    174         58  H    CARTESIAN Z     0.146224      4.721537  KCAL/ANGSTROM




   ATOM   CHEMICAL          X               Y               Z
  NUMBER   SYMBOL      (ANGSTROMS)     (ANGSTROMS)     (ANGSTROMS)
 
     1       C         -3.42927600  *   0.65401400  *   0.56652000  *
     2       O         -3.62247400  *  -0.46291500  *   1.07411100  *
     3       N         -2.23857900  *   0.99166400  *   0.15764400  *
     4       H         -2.16205300  *   1.95570700  *  -0.39167200  *
     5       C         -0.96687100  *   0.20122300  *   0.40748600  *
     6       H         -0.90002000  *  -0.08663600  *   1.42744300  *
     7       C         -0.99344300  *  -1.14543300  *  -0.45911400  *
     8       H         -1.88660300  *  -1.68399900  *  -0.01167200  *
     9       H         -1.30711400  *  -0.90449100  *  -1.48931800  *
    10       C          0.22896700  *  -1.93424200  *  -0.48248500  *
    11       C          1.14607900  *  -1.83539500  *  -1.52525100  *
    12       H          0.97221300  *  -1.11432500  *  -2.27011700  *
    13       C          2.32397600  *  -2.59061300  *  -1.52617200  *
    14       H          3.14314900  *  -2.27675000  *  -2.12245200  *
    15       C          2.57446400  *  -3.52021800  *  -0.54964000  *
    16       H          3.56309000  *  -4.01837000  *  -0.48548000  *
    17       C          0.49748200  *  -2.75674600  *   0.57069100  *
    18       H         -0.27752300  *  -2.80291400  *   1.35796700  *
    19       C          1.65108700  *  -3.62211200  *   0.53296100  *
    20       H          1.75921800  *  -4.33864400  *   1.36194700  *
    21       O          4.54550500  *  -6.62461300  *  -1.36204400  *
    22       H          5.45354400  *  -6.48031200  *  -0.96120500  *
    23       H          4.46099900  *  -7.64284500  *  -1.45610900  *
    24       O         -4.08803800  *  -3.66464200  *   1.55743000  *
    25       H         -4.07753000  *  -4.02115600  *   0.62681500  *
    26       H         -4.61106700  *  -2.85561300  *   1.60607100  *
    27       O         -0.61310900  *  -6.07164000  *  -0.03991600  *
    28       H         -0.96810600  *  -6.85495500  *   0.43432600  *
    29       H         -0.82340300  *  -5.44946200  *   0.68938300  *
    30       O         -2.05805800  *   0.56047300  *  -3.97207400  *
    31       H         -2.52361100  *   1.05534800  *  -3.37588100  *
    32       H         -1.87466300  *   1.23034600  *  -4.63411800  *
    33       O         -5.77571000  *  -1.56063500  *   2.01859300  *
    34       H         -6.30828000  *  -2.17179800  *   2.59516500  *
    35       H         -5.33999300  *  -0.94340000  *   2.64444700  *
    36       O          0.77151600  *  -2.81514800  *   5.60537200  *
    37       H          0.27743200  *  -3.60981500  *   5.48508000  *
    38       H         -0.04214400  *  -2.18883500  *   5.84041300  *
    39       O         -2.17578500  *   3.28988400  *  -2.27729200  *
    40       H         -2.52501600  *   3.23097700  *  -3.15095200  *
    41       H         -2.76378500  *   3.56050500  *  -1.61190200  *
    42       O         -0.40091800  *   0.48262100  *   3.83919100  *
    43       H         -0.60431600  *   1.40693500  *   4.15519500  *
    44       H          0.52772000  *   0.39750400  *   3.79470300  *
    45       O         -1.89894400  *  -3.71788600  *   3.09987800  *
    46       H         -2.69421500  *  -3.72339400  *   2.52979800  *
    47       H         -1.64330700  *  -2.72384100  *   3.09124200  *
    48       O         -1.58410700  *  -3.12753900  *  -2.98480400  *
    49       H         -1.68052800  *  -2.87618300  *  -3.89714200  *
    50       H         -1.76209100  *  -2.35585000  *  -2.43949200  *
    51       O         -2.42996700  *  -1.15831600  *   3.21976100  *
    52       H         -2.78289700  *  -0.97855500  *   2.31219900  *
    53       H         -1.74670800  *  -0.56418900  *   3.49996200  *
    54       O         -0.55789500  *   4.35558200  *   1.13965100  *
    55       H         -1.56832300  *   4.35269500  *   0.82856500  *
    56       H         -0.15292400  *   4.27872300  *   0.24695800  *
    57       H         -4.25482100  *   1.35398700  *   0.43762600  *
    58       H         -0.12378000  *   0.84078500  *   0.14622400  *

                             CARTESIAN COORDINATES

   1    C       -3.429276000     0.654014000     0.566520000
   2    O       -3.622474000    -0.462915000     1.074111000
   3    N       -2.238579000     0.991664000     0.157644000
   4    H       -2.162053000     1.955707000    -0.391672000
   5    C       -0.966871000     0.201223000     0.407486000
   6    H       -0.900020000    -0.086636000     1.427443000
   7    C       -0.993443000    -1.145433000    -0.459114000
   8    H       -1.886603000    -1.683999000    -0.011672000
   9    H       -1.307114000    -0.904491000    -1.489318000
  10    C        0.228967000    -1.934242000    -0.482485000
  11    C        1.146079000    -1.835395000    -1.525251000
  12    H        0.972213000    -1.114325000    -2.270117000
  13    C        2.323976000    -2.590613000    -1.526172000
  14    H        3.143149000    -2.276750000    -2.122452000
  15    C        2.574464000    -3.520218000    -0.549640000
  16    H        3.563090000    -4.018370000    -0.485480000
  17    C        0.497482000    -2.756746000     0.570691000
  18    H       -0.277523000    -2.802914000     1.357967000
  19    C        1.651087000    -3.622112000     0.532961000
  20    H        1.759218000    -4.338644000     1.361947000
  21    O        4.545505000    -6.624613000    -1.362044000
  22    H        5.453544000    -6.480312000    -0.961205000
  23    H        4.460999000    -7.642845000    -1.456109000
  24    O       -4.088038000    -3.664642000     1.557430000
  25    H       -4.077530000    -4.021156000     0.626815000
  26    H       -4.611067000    -2.855613000     1.606071000
  27    O       -0.613109000    -6.071640000    -0.039916000
  28    H       -0.968106000    -6.854955000     0.434326000
  29    H       -0.823403000    -5.449462000     0.689383000
  30    O       -2.058058000     0.560473000    -3.972074000
  31    H       -2.523611000     1.055348000    -3.375881000
  32    H       -1.874663000     1.230346000    -4.634118000
  33    O       -5.775710000    -1.560635000     2.018593000
  34    H       -6.308280000    -2.171798000     2.595165000
  35    H       -5.339993000    -0.943400000     2.644447000
  36    O        0.771516000    -2.815148000     5.605372000
  37    H        0.277432000    -3.609815000     5.485080000
  38    H       -0.042144000    -2.188835000     5.840413000
  39    O       -2.175785000     3.289884000    -2.277292000
  40    H       -2.525016000     3.230977000    -3.150952000
  41    H       -2.763785000     3.560505000    -1.611902000
  42    O       -0.400918000     0.482621000     3.839191000
  43    H       -0.604316000     1.406935000     4.155195000
  44    H        0.527720000     0.397504000     3.794703000
  45    O       -1.898944000    -3.717886000     3.099878000
  46    H       -2.694215000    -3.723394000     2.529798000
  47    H       -1.643307000    -2.723841000     3.091242000
  48    O       -1.584107000    -3.127539000    -2.984804000
  49    H       -1.680528000    -2.876183000    -3.897142000
  50    H       -1.762091000    -2.355850000    -2.439492000
  51    O       -2.429967000    -1.158316000     3.219761000
  52    H       -2.782897000    -0.978555000     2.312199000
  53    H       -1.746708000    -0.564189000     3.499962000
  54    O       -0.557895000     4.355582000     1.139651000
  55    H       -1.568323000     4.352695000     0.828565000
  56    H       -0.152924000     4.278723000     0.246958000
  57    H       -4.254821000     1.353987000     0.437626000
  58    H       -0.123780000     0.840785000     0.146224000


           Empirical Formula: C9 H35 N O13  =    58 atoms



      MOLECULAR POINT GROUP   :   C1  


                EIGENVECTORS  


   Root No.       1         2         3         4         5         6         7         8

                 1 A       2 A       3 A       4 A       5 A       6 A       7 A       8 A   

               -36.518   -29.992   -29.774   -29.375   -29.234   -29.169   -28.979   -28.872
  
  S   C    1    0.3519   -0.0330   -0.0204    0.0192   -0.1966    0.1080   -0.1582   -0.1903
  Px  C    1    0.2116   -0.0094   -0.0007   -0.0062    0.0565   -0.0426    0.0477    0.0524
  Py  C    1    0.0512   -0.0159    0.0135   -0.0186    0.1752   -0.1048    0.1408    0.1432
  Pz  C    1   -0.0679    0.0081   -0.0068    0.0104   -0.0927    0.0582   -0.0720   -0.0695
  S   O    2    0.0681    0.0065   -0.0332    0.0470   -0.4400    0.2680   -0.3464   -0.3660
  Px  O    2    0.0512    0.0031   -0.0040    0.0042   -0.0326    0.0172   -0.0305   -0.0164
  Py  O    2    0.0748   -0.0090   -0.0130    0.0148   -0.1501    0.0858   -0.1283   -0.1447
  Pz  O    2   -0.0407    0.0044    0.0050   -0.0037    0.0498   -0.0246    0.0524    0.0668
  S   N    3    0.8118   -0.0394   -0.0036   -0.0117    0.0953   -0.0753    0.0845    0.0714
  Px  N    3   -0.0827    0.0349    0.0040   -0.0033    0.0402   -0.0212    0.0358    0.0567
  Py  N    3   -0.0223   -0.0198    0.0101   -0.0056    0.0558   -0.0213    0.0388    0.0334
  Pz  N    3    0.0322   -0.0023   -0.0076    0.0037   -0.0357    0.0148   -0.0253   -0.0235
  S   H    4    0.2151   -0.0141    0.0134   -0.0060    0.0617   -0.0179    0.0399    0.0359
  S   C    5    0.2103    0.1057   -0.0064   -0.0012    0.0178   -0.0194    0.0249    0.0643
  Px  C    5   -0.1301    0.0224    0.0018    0.0006   -0.0042    0.0079   -0.0067   -0.0034
  Py  C    5    0.0706   -0.0491    0.0025   -0.0026    0.0249   -0.0158    0.0201    0.0147
  Pz  C    5   -0.0204   -0.0183   -0.0015    0.0028   -0.0166    0.0115   -0.0128   -0.0032
  S   H    6    0.0760    0.0536   -0.0046    0.0032   -0.0128    0.0063   -0.0045    0.0339
  S   C    7    0.0630    0.2412   -0.0078   -0.0016   -0.0016   -0.0042    0.0027    0.0234
  Px  C    7   -0.0189    0.0809   -0.0034   -0.0020    0.0083   -0.0030    0.0021   -0.0008
  Py  C    7    0.0369   -0.0442    0.0021    0.0004    0.0031   -0.0046    0.0058    0.0130
  Pz  C    7    0.0159    0.0017   -0.0029    0.0012   -0.0047    0.0034   -0.0020    0.0053
  S   H    8    0.0350    0.0905   -0.0039    0.0011   -0.0120    0.0053   -0.0048    0.0060
  S   H    9    0.0319    0.1007    0.0013   -0.0011    0.0003   -0.0050    0.0029    0.0100
  S   C   10    0.0127    0.4567   -0.0196   -0.0079    0.0194   -0.0075    0.0006   -0.0116
  Px  C   10   -0.0075    0.0656   -0.0040   -0.0028    0.0103   -0.0030    0.0003   -0.0151
  Py  C   10    0.0073   -0.0347    0.0026    0.0010   -0.0032   -0.0005    0.0014    0.0107
  Pz  C   10    0.0021    0.0036   -0.0011    0.0010   -0.0035    0.0028   -0.0013    0.0030
  S   C   11    0.0036    0.3789   -0.0166   -0.0091    0.0263   -0.0107    0.0016   -0.0260
  Px  C   11   -0.0027   -0.0083   -0.0006   -0.0006    0.0030   -0.0004   -0.0003   -0.0075
  Py  C   11    0.0016   -0.0592    0.0034    0.0016   -0.0051    0.0012    0.0004    0.0085
  Pz  C   11    0.0014    0.1114   -0.0053   -0.0022    0.0061   -0.0020    0.0001   -0.0055
  S   H   12    0.0028    0.1282   -0.0048   -0.0031    0.0086   -0.0043    0.0010   -0.0069
  S   C   13    0.0002    0.3214   -0.0158   -0.0088    0.0272   -0.0097    0.0007   -0.0347
  Px  C   13   -0.0004   -0.0838    0.0037    0.0019   -0.0054    0.0021   -0.0002    0.0054
  Py  C   13    0.0003    0.0040    0.0001   -0.0000   -0.0002   -0.0003    0.0002    0.0015
  Pz  C   13    0.0001    0.0869   -0.0044   -0.0022    0.0067   -0.0021   -0.0000   -0.0087
  S   H   14    0.0000    0.1002   -0.0049   -0.0029    0.0091   -0.0033    0.0003   -0.0118
  S   C   15   -0.0000    0.2785   -0.0142   -0.0075    0.0237   -0.0077    0.0002   -0.0322
  Px  C   15   -0.0002   -0.0884    0.0043    0.0020   -0.0062    0.0019    0.0000    0.0078
  Py  C   15    0.0001    0.0818   -0.0040   -0.0022    0.0066   -0.0023    0.0001   -0.0082
  Pz  C   15    0.0000   -0.0069    0.0003    0.0005   -0.0013    0.0008   -0.0002    0.0014
  S   H   16   -0.0001    0.0738   -0.0038   -0.0021    0.0068   -0.0022    0.0001   -0.0096
  S   C   17    0.0048    0.3510   -0.0170   -0.0052    0.0143   -0.0020   -0.0016   -0.0169
  Px  C   17   -0.0027    0.0386   -0.0022   -0.0021    0.0074   -0.0031    0.0005   -0.0099
  Py  C   17    0.0032    0.0459   -0.0018   -0.0005    0.0003   -0.0005   -0.0001    0.0029
  Pz  C   17   -0.0008   -0.1212    0.0054    0.0032   -0.0084    0.0038   -0.0003    0.0080
  S   H   18    0.0042    0.1114   -0.0055    0.0007   -0.0020    0.0041   -0.0016    0.0006
  S   C   19    0.0003    0.2692   -0.0137   -0.0059    0.0188   -0.0049   -0.0004   -0.0260
  Px  C   19   -0.0004   -0.0269    0.0012   -0.0001    0.0007   -0.0009    0.0003   -0.0011
  Py  C   19    0.0004    0.0826   -0.0040   -0.0017    0.0050   -0.0014   -0.0002   -0.0059
  Pz  C   19   -0.0000   -0.0811    0.0040    0.0024   -0.0069    0.0026   -0.0002    0.0087
  S   H   20    0.0001    0.0712   -0.0037   -0.0012    0.0048   -0.0009   -0.0001   -0.0071
  S   O   21   -0.0000    0.0017   -0.0001   -0.0001    0.0002   -0.0001    0.0000   -0.0003
  Px  O   21    0.0000    0.0002   -0.0000   -0.0000    0.0000   -0.0000    0.0000   -0.0000
  Py  O   21   -0.0000    0.0004   -0.0000   -0.0000    0.0000   -0.0000    0.0000   -0.0000
  Pz  O   21   -0.0000    0.0004   -0.0000   -0.0000    0.0000   -0.0000    0.0000   -0.0001
  S   H   22   -0.0000    0.0010   -0.0001   -0.0000    0.0001   -0.0000    0.0000   -0.0002
  S   H   23   -0.0000    0.0005   -0.0000   -0.0000    0.0001   -0.0000    0.0000   -0.0001
  S   O   24    0.0003    0.0147   -0.0025    0.0174   -0.1136    0.1181    0.1990    0.0296
  Px  O   24    0.0002    0.0002    0.0001   -0.0009    0.0125   -0.0138   -0.0317   -0.0004
  Py  O   24    0.0000    0.0023   -0.0004    0.0029   -0.0204    0.0212    0.0368    0.0041
  Pz  O   24   -0.0000   -0.0015    0.0002   -0.0016    0.0142   -0.0153   -0.0303   -0.0029
  S   H   25    0.0003    0.0054   -0.0008    0.0056   -0.0367    0.0382    0.0644    0.0096
  S   H   26   -0.0000    0.0068   -0.0013    0.0086   -0.0608    0.0631    0.1101    0.0120
  S   O   27    0.0001    0.0375   -0.0024    0.0020   -0.0075    0.0120    0.0117    0.0027
  Px  O   27   -0.0000   -0.0043    0.0003   -0.0003    0.0010   -0.0016   -0.0015   -0.0004
  Py  O   27    0.0000    0.0017   -0.0001   -0.0000    0.0002   -0.0002   -0.0003   -0.0002
  Pz  O   27    0.0000    0.0115   -0.0007    0.0006   -0.0021    0.0033    0.0032    0.0007
  S   H   28    0.0000    0.0140   -0.0009    0.0008   -0.0029    0.0046    0.0044    0.0011
  S   H   29    0.0002    0.0208   -0.0013    0.0009   -0.0033    0.0052    0.0047    0.0010
  S   O   30    0.0038    0.0400    0.7469    0.0104   -0.2538   -0.2799    0.0245    0.0102
  Px  O   30   -0.0007   -0.0034   -0.0680   -0.0009    0.0206    0.0224   -0.0019   -0.0008
  Py  O   30    0.0013    0.0106    0.2155    0.0029   -0.0686   -0.0749    0.0063    0.0025
  Pz  O   30    0.0011    0.0020    0.0166    0.0001   -0.0021   -0.0022    0.0002    0.0002
  S   H   31    0.0045    0.0185    0.3335    0.0043   -0.1009   -0.1099    0.0093    0.0038
  S   H   32    0.0015    0.0148    0.2825    0.0039   -0.0925   -0.1012    0.0086    0.0034
  S   O   33    0.0000    0.0109   -0.0047    0.0316   -0.2970    0.3202    0.6849    0.0129
  Px  O   33   -0.0007    0.0007   -0.0001    0.0004   -0.0009    0.0003   -0.0052    0.0010
  Py  O   33   -0.0003   -0.0003   -0.0000   -0.0003    0.0017   -0.0025   -0.0087   -0.0019
  Pz  O   33    0.0004    0.0027   -0.0013    0.0082   -0.0774    0.0830    0.1755    0.0026
  S   H   34    0.0002    0.0040   -0.0017    0.0114   -0.1065    0.1148    0.2454    0.0049
  S   H   35    0.0000    0.0046   -0.0021    0.0126   -0.1158    0.1221    0.2460    0.0024
  S   O   36    0.0001    0.0077   -0.0016    0.8526    0.0877   -0.0508    0.0180   -0.0394
  Px  O   36   -0.0000   -0.0022    0.0004   -0.2273   -0.0228    0.0131   -0.0045    0.0097
  Py  O   36    0.0000   -0.0007    0.0001   -0.0862   -0.0093    0.0055   -0.0023    0.0052
  Pz  O   36   -0.0000   -0.0000   -0.0000    0.0076    0.0009   -0.0006    0.0002   -0.0005
  S   H   37    0.0001    0.0035   -0.0007    0.3539    0.0360   -0.0207    0.0074   -0.0161
  S   H   38    0.0001    0.0027   -0.0005    0.2677    0.0262   -0.0148    0.0047   -0.0097
  S   O   39    0.0155    0.0025    0.3743   -0.0103    0.4552    0.6152   -0.0886   -0.0523
  Px  O   39   -0.0046   -0.0005   -0.0924    0.0025   -0.1108   -0.1492    0.0213    0.0125
  Py  O   39   -0.0022   -0.0002    0.0105   -0.0006    0.0264    0.0368   -0.0058   -0.0036
  Pz  O   39    0.0068   -0.0016   -0.0270   -0.0001   -0.0093   -0.0197    0.0054    0.0041
  S   H   40    0.0049    0.0022    0.1575   -0.0034    0.1607    0.2202   -0.0326   -0.0196
  S   H   41    0.0151   -0.0000    0.1424   -0.0043    0.1800    0.2374   -0.0320   -0.0182
  S   O   42    0.0034    0.0242   -0.0050    0.0552   -0.1611    0.1478   -0.2228    0.7222
  Px  O   42   -0.0003    0.0024   -0.0004    0.0086   -0.0195    0.0195   -0.0362    0.1321
  Py  O   42   -0.0002    0.0018   -0.0004    0.0061   -0.0184    0.0179   -0.0319    0.1135
  Pz  O   42   -0.0014   -0.0007    0.0000    0.0027   -0.0051    0.0052   -0.0098    0.0348
  S   H   43    0.0016    0.0082   -0.0017    0.0188   -0.0549    0.0504   -0.0763    0.2480
  S   H   44    0.0019    0.0099   -0.0019    0.0225   -0.0607    0.0560   -0.0860    0.2825
  S   O   45    0.0016    0.0373   -0.0047    0.0365   -0.1009    0.0909    0.0088    0.0673
  Px  O   45   -0.0001   -0.0028    0.0005   -0.0025    0.0135   -0.0125   -0.0056   -0.0079
  Py  O   45    0.0009    0.0104   -0.0013    0.0096   -0.0245    0.0214   -0.0023    0.0163
  Pz  O   45   -0.0003   -0.0069    0.0007   -0.0031    0.0149   -0.0136   -0.0035   -0.0091
  S   H   46    0.0010    0.0165   -0.0021    0.0143   -0.0458    0.0418    0.0129    0.0274
  S   H   47    0.0022    0.0211   -0.0027    0.0197   -0.0499    0.0433   -0.0057    0.0329
  S   O   48    0.0031    0.1046    0.0063   -0.0018   -0.0041   -0.0104    0.0038    0.0151
  Px  O   48   -0.0003   -0.0063   -0.0006    0.0001    0.0004    0.0007   -0.0003   -0.0011
  Py  O   48    0.0017    0.0332    0.0018   -0.0005   -0.0011   -0.0029    0.0010    0.0040
  Pz  O   48    0.0006   -0.0006   -0.0007    0.0001    0.0003    0.0008   -0.0003   -0.0011
  S   H   49    0.0011    0.0385    0.0029   -0.0007   -0.0017   -0.0041    0.0014    0.0056
  S   H   50    0.0044    0.0613    0.0030   -0.0009   -0.0019   -0.0047    0.0017    0.0066
  S   O   51    0.0147    0.0509   -0.0137    0.0584   -0.2716    0.2130   -0.1551    0.1669
  Px  O   51    0.0013    0.0068   -0.0012    0.0076   -0.0250    0.0203   -0.0197    0.0305
  Py  O   51    0.0041    0.0076   -0.0024    0.0091   -0.0462    0.0355   -0.0313    0.0322
  Pz  O   51   -0.0062   -0.0093    0.0026   -0.0074    0.0436   -0.0328    0.0204   -0.0090
  S   H   52    0.0188    0.0232   -0.0072    0.0230   -0.1225    0.0921   -0.0640    0.0360
  S   H   53    0.0086    0.0223   -0.0055    0.0258   -0.1082    0.0855   -0.0679    0.0921
  S   O   54    0.0046   -0.0003    0.0146   -0.0017    0.0448    0.0366    0.0083    0.0215
  Px  O   54   -0.0015    0.0002   -0.0019    0.0002   -0.0049   -0.0040   -0.0008   -0.0019
  Py  O   54   -0.0008   -0.0000   -0.0004    0.0001   -0.0013   -0.0008   -0.0003   -0.0008
  Pz  O   54   -0.0020    0.0001   -0.0044    0.0005   -0.0128   -0.0104   -0.0024   -0.0058
  S   H   55    0.0050   -0.0003    0.0065   -0.0007    0.0173    0.0140    0.0030    0.0073
  S   H   56    0.0034   -0.0000    0.0065   -0.0008    0.0189    0.0153    0.0035    0.0088
  S   H   57    0.0949   -0.0144   -0.0038    0.0049   -0.0517    0.0313   -0.0419   -0.0564
  S   H   58    0.0678    0.0465   -0.0011   -0.0013    0.0144   -0.0104    0.0146    0.0310


   Root No.       9        10        11        12        13        14        15        16

                 9 A      10 A      11 A      12 A      13 A      14 A      15 A      16 A   

               -28.788   -28.542   -28.508   -28.368   -27.824   -27.353   -27.242   -26.825
  
  S   C    1   -0.0018   -0.0236    0.0041   -0.1320    0.0709    0.0450   -0.0702   -0.0026
  Px  C    1    0.0021   -0.0020   -0.0052    0.0343   -0.0143    0.0008   -0.0298   -0.0007
  Py  C    1    0.0050   -0.0050   -0.0081    0.0763   -0.0270    0.0137   -0.0869   -0.0024
  Pz  C    1   -0.0024    0.0019    0.0053   -0.0314    0.0063   -0.0081    0.0375    0.0011
  S   O    2   -0.0097   -0.0063    0.0203   -0.1978    0.0786   -0.0031    0.0931    0.0023
  Px  O    2   -0.0003    0.0022    0.0011    0.0068   -0.0088   -0.0067    0.0049    0.0002
  Py  O    2   -0.0029   -0.0097    0.0055   -0.1003    0.0462    0.0207    0.0086   -0.0001
  Pz  O    2    0.0012    0.0047   -0.0012    0.0618   -0.0390   -0.0133   -0.0151   -0.0002
  S   N    3    0.0044   -0.0142   -0.0098    0.0301   -0.0045    0.0171   -0.0773   -0.0019
  Px  N    3   -0.0020    0.0213    0.0013    0.0509   -0.0379   -0.0465    0.1271    0.0041
  Py  N    3    0.0026   -0.0104    0.0015    0.0116    0.0015    0.0200   -0.0771   -0.0023
  Pz  N    3   -0.0003   -0.0026    0.0001   -0.0113    0.0033    0.0006    0.0006    0.0000
  S   H    4    0.0019   -0.0055    0.0023    0.0156   -0.0029    0.0089   -0.0400   -0.0011
  S   C    5   -0.0074    0.0448   -0.0006    0.0704   -0.0620   -0.0987    0.3100    0.0092
  Px  C    5   -0.0016    0.0018    0.0025   -0.0021   -0.0015   -0.0070    0.0306    0.0007
  Py  C    5    0.0035   -0.0148   -0.0003    0.0000    0.0055    0.0219   -0.0873   -0.0021
  Pz  C    5    0.0016   -0.0096    0.0007    0.0011   -0.0012    0.0081   -0.0396   -0.0010
  S   H    6   -0.0034    0.0193    0.0007    0.0417   -0.0379   -0.0492    0.1397    0.0042
  S   C    7   -0.0164    0.0847   -0.0003    0.0417   -0.0473   -0.1161    0.4247    0.0108
  Px  C    7   -0.0045   -0.0113    0.0002   -0.0009   -0.0038   -0.0110    0.0486    0.0005
  Py  C    7    0.0012    0.0021   -0.0003    0.0107   -0.0093   -0.0082    0.0117    0.0010
  Pz  C    7    0.0016   -0.0154    0.0003    0.0140   -0.0074   -0.0100    0.0340    0.0011
  S   H    8   -0.0053    0.0396    0.0002    0.0212   -0.0170   -0.0479    0.1719    0.0045
  S   H    9   -0.0084    0.0637   -0.0004    0.0114   -0.0181   -0.0470    0.1702    0.0044
  S   C   10   -0.0233   -0.0126   -0.0003    0.0003   -0.0182   -0.0613    0.2453    0.0035
  Px  C   10   -0.0030   -0.0539   -0.0002   -0.0224    0.0152    0.0377   -0.1514   -0.0046
  Py  C   10   -0.0029    0.0308    0.0001    0.0116   -0.0132   -0.0287    0.0949    0.0028
  Pz  C   10    0.0045   -0.0075    0.0003    0.0114   -0.0012   -0.0030    0.0348    0.0010
  S   C   11   -0.0244   -0.0589   -0.0007   -0.0336    0.0048    0.0045   -0.0504   -0.0039
  Px  C   11    0.0006   -0.0346   -0.0001   -0.0124    0.0113    0.0333   -0.1408   -0.0032
  Py  C   11    0.0020    0.0266    0.0001    0.0109   -0.0076   -0.0190    0.0771    0.0021
  Pz  C   11   -0.0049   -0.0175   -0.0001   -0.0035   -0.0009   -0.0054    0.0236    0.0000
  S   H   12   -0.0096   -0.0080   -0.0003   -0.0102   -0.0012   -0.0057    0.0075   -0.0008
  S   C   13   -0.0193   -0.1066   -0.0008   -0.0491    0.0238    0.0633   -0.2938   -0.0075
  Px  C   13    0.0046    0.0112    0.0001    0.0060   -0.0003    0.0026   -0.0083    0.0012
  Py  C   13   -0.0017    0.0083    0.0000    0.0022   -0.0035   -0.0109    0.0424   -0.0001
  Pz  C   13   -0.0033   -0.0293   -0.0002   -0.0108    0.0062    0.0162   -0.0680   -0.0014
  S   H   14   -0.0068   -0.0369   -0.0003   -0.0176    0.0088    0.0245   -0.1158   -0.0026
  S   C   15   -0.0111   -0.1068   -0.0007   -0.0442    0.0263    0.0720   -0.3127   -0.0046
  Px  C   15    0.0019    0.0239    0.0001    0.0087   -0.0047   -0.0104    0.0397    0.0028
  Py  C   15   -0.0057   -0.0253   -0.0002   -0.0111    0.0052    0.0132   -0.0612   -0.0027
  Pz  C   15    0.0036    0.0028    0.0001    0.0035   -0.0005   -0.0021    0.0194    0.0006
  S   H   16   -0.0029   -0.0328   -0.0002   -0.0138    0.0087    0.0250   -0.1097    0.0023
  S   C   17   -0.0022   -0.0564    0.0001   -0.0014    0.0069    0.0030    0.0493   -0.0008
  Px  C   17   -0.0024   -0.0325   -0.0003   -0.0180    0.0083    0.0242   -0.1134   -0.0028
  Py  C   17   -0.0093    0.0110    0.0001    0.0064   -0.0090   -0.0242    0.0907    0.0019
  Pz  C   17    0.0085    0.0155    0.0003    0.0110    0.0027    0.0091   -0.0155    0.0003
  S   H   18    0.0054   -0.0085    0.0005    0.0190    0.0060    0.0042    0.0588    0.0008
  S   C   19    0.0019   -0.0885   -0.0003   -0.0282    0.0216    0.0528   -0.1929   -0.0045
  Px  C   19   -0.0046   -0.0042   -0.0001   -0.0061    0.0019    0.0095   -0.0576   -0.0001
  Py  C   19   -0.0061   -0.0186   -0.0001   -0.0050    0.0028    0.0046   -0.0136   -0.0011
  Pz  C   19    0.0062    0.0263    0.0002    0.0126   -0.0052   -0.0141    0.0692    0.0015
  S   H   20    0.0070   -0.0258   -0.0001   -0.0072    0.0073    0.0181   -0.0616   -0.0011
  S   O   21   -0.0000   -0.0014   -0.0000   -0.0007    0.0006    0.0035   -0.0195    0.8759
  Px  O   21   -0.0000   -0.0002   -0.0000   -0.0001    0.0001    0.0006   -0.0033    0.1560
  Py  O   21   -0.0000   -0.0001   -0.0000   -0.0000   -0.0000   -0.0003    0.0021   -0.1523
  Pz  O   21   -0.0000   -0.0002   -0.0000   -0.0001    0.0001    0.0003   -0.0018    0.0588
  S   H   22   -0.0000   -0.0007   -0.0000   -0.0003    0.0003    0.0014   -0.0075    0.3033
  S   H   23    0.0000   -0.0004   -0.0000   -0.0002    0.0002    0.0011   -0.0063    0.2987
  S   O   24    0.0103    0.0136    0.0025    0.1806    0.5800   -0.5559   -0.1169   -0.0006
  Px  O   24    0.0014    0.0004    0.0004    0.0023   -0.0447    0.0889    0.0192    0.0001
  Py  O   24   -0.0001    0.0012    0.0001    0.0181    0.0595   -0.0629   -0.0131   -0.0001
  Pz  O   24   -0.0014   -0.0018   -0.0001   -0.0183   -0.0933    0.1235    0.0252    0.0001
  S   H   25    0.0046    0.0050    0.0008    0.0592    0.1944   -0.1917   -0.0392   -0.0002
  S   H   26    0.0019    0.0042    0.0005    0.0594    0.2017   -0.2011   -0.0418   -0.0002
  S   O   27    0.8495    0.0254   -0.0017   -0.0404   -0.0236   -0.0109    0.0004    0.0000
  Px  O   27   -0.1057   -0.0034    0.0002    0.0047    0.0026    0.0014   -0.0006   -0.0000
  Py  O   27   -0.0299   -0.0014    0.0001    0.0022    0.0020    0.0014   -0.0003   -0.0000
  Pz  O   27    0.2248    0.0064   -0.0004   -0.0100   -0.0053   -0.0021    0.0001    0.0000
  S   H   28    0.3202    0.0096   -0.0006   -0.0151   -0.0087   -0.0041    0.0002    0.0000
  S   H   29    0.3254    0.0088   -0.0006   -0.0132   -0.0061   -0.0019    0.0002   -0.0000
  S   O   30    0.0024   -0.0182    0.0122    0.0006    0.0010    0.0022   -0.0075   -0.0002
  Px  O   30   -0.0002    0.0017   -0.0008   -0.0001   -0.0001   -0.0002    0.0007    0.0000
  Py  O   30    0.0008   -0.0076    0.0030    0.0004    0.0003    0.0007   -0.0025   -0.0001
  Pz  O   30   -0.0001    0.0014   -0.0001    0.0001   -0.0002   -0.0005    0.0020    0.0001
  S   H   31    0.0009   -0.0065    0.0041    0.0003    0.0002    0.0004   -0.0014   -0.0000
  S   H   32    0.0009   -0.0074    0.0042    0.0002    0.0004    0.0009   -0.0032   -0.0001
  S   O   33   -0.0283   -0.0249   -0.0103   -0.1838   -0.1823    0.1418    0.0303    0.0001
  Px  O   33    0.0006    0.0010    0.0004    0.0099    0.0155   -0.0176   -0.0040   -0.0000
  Py  O   33   -0.0003   -0.0004    0.0001   -0.0054   -0.0217    0.0203    0.0040    0.0000
  Pz  O   33   -0.0075   -0.0066   -0.0026   -0.0495   -0.0556    0.0445    0.0092    0.0000
  S   H   34   -0.0099   -0.0087   -0.0036   -0.0630   -0.0567    0.0431    0.0093    0.0000
  S   H   35   -0.0104   -0.0087   -0.0033   -0.0641   -0.0695    0.0508    0.0104    0.0000
  S   O   36   -0.0022   -0.0009   -0.0005   -0.0211   -0.0050   -0.0098   -0.0006    0.0000
  Px  O   36    0.0005    0.0002    0.0001    0.0046    0.0011    0.0017    0.0001   -0.0000
  Py  O   36    0.0002    0.0000    0.0000    0.0019    0.0002    0.0007   -0.0001   -0.0000
  Pz  O   36   -0.0001   -0.0000   -0.0000   -0.0005   -0.0003   -0.0005   -0.0001   -0.0000
  S   H   37   -0.0008   -0.0003   -0.0002   -0.0073   -0.0013   -0.0025    0.0000    0.0000
  S   H   38   -0.0007   -0.0003   -0.0001   -0.0053   -0.0015   -0.0021   -0.0003   -0.0000
  S   O   39   -0.0031    0.0096   -0.0574   -0.0064    0.0001   -0.0034    0.0129    0.0003
  Px  O   39    0.0007   -0.0022    0.0139    0.0015   -0.0001    0.0006   -0.0025   -0.0001
  Py  O   39   -0.0002    0.0008   -0.0018   -0.0007    0.0001   -0.0003    0.0013    0.0000
  Pz  O   39    0.0002   -0.0004    0.0066    0.0010   -0.0001    0.0008   -0.0035   -0.0001
  S   H   40   -0.0011    0.0032   -0.0223   -0.0025    0.0001   -0.0014    0.0054    0.0001
  S   H   41   -0.0011    0.0034   -0.0168   -0.0020    0.0000   -0.0006    0.0020    0.0000
  S   O   42   -0.0140   -0.0629   -0.0241   -0.3223    0.1109    0.0328    0.0078   -0.0001
  Px  O   42   -0.0028   -0.0144   -0.0056   -0.0868    0.0425    0.0151    0.0117    0.0001
  Py  O   42   -0.0024   -0.0121   -0.0046   -0.0711    0.0329    0.0113    0.0070    0.0001
  Pz  O   42   -0.0007   -0.0043   -0.0015   -0.0240    0.0118    0.0051   -0.0013   -0.0001
  S   H   43   -0.0048   -0.0217   -0.0081   -0.1122    0.0391    0.0115    0.0032   -0.0000
  S   H   44   -0.0055   -0.0250   -0.0097   -0.1320    0.0485    0.0147    0.0076    0.0000
  S   O   45    0.0311    0.0308    0.0120    0.4395    0.4005    0.5923    0.1221    0.0005
  Px  O   45   -0.0040   -0.0041   -0.0014   -0.0559   -0.0643   -0.0693   -0.0143   -0.0001
  Py  O   45    0.0046    0.0067    0.0027    0.0935    0.0630    0.1078    0.0208    0.0001
  Pz  O   45   -0.0063   -0.0043   -0.0016   -0.0604   -0.0601   -0.0728   -0.0167   -0.0001
  S   H   46    0.0145    0.0128    0.0048    0.1775    0.1778    0.1964    0.0413    0.0002
  S   H   47    0.0109    0.0132    0.0053    0.1799    0.1112    0.1902    0.0343    0.0001
  S   O   48   -0.0322    0.8199   -0.0052   -0.1123    0.0287    0.0535   -0.1744   -0.0031
  Px  O   48    0.0021   -0.0554    0.0003    0.0073   -0.0019   -0.0033    0.0108    0.0002
  Py  O   48   -0.0085    0.2027   -0.0013   -0.0267    0.0059    0.0096   -0.0299   -0.0004
  Pz  O   48    0.0024   -0.0720    0.0005    0.0111   -0.0038   -0.0090    0.0310    0.0007
  S   H   49   -0.0121    0.3086   -0.0019   -0.0426    0.0110    0.0210   -0.0687   -0.0012
  S   H   50   -0.0136    0.3185   -0.0020   -0.0408    0.0082    0.0116   -0.0349   -0.0004
  S   O   51    0.0034    0.0490    0.0212    0.5363   -0.4428   -0.1767   -0.2221   -0.0037
  Px  O   51    0.0009    0.0052    0.0020    0.0631   -0.0429   -0.0089   -0.0219   -0.0004
  Py  O   51   -0.0011    0.0072    0.0031    0.0733   -0.1006   -0.0611   -0.0443   -0.0006
  Pz  O   51   -0.0003   -0.0075   -0.0032   -0.0673    0.0495    0.0224    0.0158    0.0001
  S   H   52    0.0005    0.0185    0.0084    0.1765   -0.1405   -0.0620   -0.0548   -0.0007
  S   H   53    0.0008    0.0170    0.0072    0.1953   -0.1677   -0.0675   -0.0804   -0.0013
  S   O   54    0.0002    0.0020    0.8657   -0.0275    0.0028    0.0004    0.0008    0.0000
  Px  O   54   -0.0000   -0.0001   -0.0698    0.0021   -0.0002   -0.0002    0.0005    0.0000
  Py  O   54   -0.0000   -0.0000   -0.0178    0.0005    0.0000    0.0001   -0.0002   -0.0000
  Pz  O   54   -0.0000   -0.0006   -0.2276    0.0070   -0.0006   -0.0001   -0.0003   -0.0000
  S   H   55    0.0001    0.0006    0.2708   -0.0083    0.0008    0.0003   -0.0004   -0.0000
  S   H   56    0.0001    0.0009    0.3365   -0.0104    0.0009    0.0000    0.0007    0.0000
  S   H   57   -0.0001   -0.0103    0.0014   -0.0446    0.0264    0.0222   -0.0436   -0.0016
  S   H   58   -0.0033    0.0175    0.0019    0.0293   -0.0261   -0.0414    0.1303    0.0039


   Root No.      17        18        19        20        21        22        23        24

                17 A      18 A      19 A      20 A      21 A      22 A      23 A      24 A   

               -24.929   -24.671   -22.225   -20.570   -20.326   -19.208   -18.718   -18.256
  
  S   C    1    0.0997   -0.1938    0.2906   -0.1074    0.3305    0.0723    0.0316   -0.0015
  Px  C    1    0.0088   -0.0070   -0.0341    0.0153   -0.1095   -0.1269   -0.2420    0.3005
  Py  C    1    0.0697   -0.1287    0.1466   -0.0426    0.1223    0.0600    0.0785   -0.0523
  Pz  C    1   -0.0336    0.0640   -0.0806   -0.0018   -0.0083    0.0376   -0.0092    0.0208
  S   O    2   -0.0705    0.1258   -0.2275    0.1029   -0.2940   -0.0281    0.0498   -0.0736
  Px  O    2   -0.0046    0.0126   -0.0037   -0.0066   -0.0214   -0.0764   -0.1503    0.2262
  Py  O    2    0.0143   -0.0328    0.0790   -0.0537    0.1825    0.0719    0.0225   -0.0387
  Pz  O    2   -0.0067    0.0155   -0.0551    0.0187   -0.0749    0.0025   -0.0083    0.0624
  S   N    3    0.0096   -0.0074   -0.1358    0.0682   -0.2054   -0.0270   -0.0154   -0.0434
  Px  N    3   -0.1398    0.2628   -0.2920    0.0466   -0.1060    0.0634    0.0800   -0.1553
  Py  N    3    0.0492   -0.0912   -0.0304    0.0583   -0.1542    0.0962    0.2445   -0.2767
  Pz  N    3    0.0020    0.0073    0.0216   -0.0766    0.1481    0.0194   -0.1659    0.2198
  S   H    4    0.0134   -0.0254   -0.0665    0.0656   -0.1621    0.0445    0.2013   -0.2095
  S   C    5   -0.2100    0.3885   -0.1241   -0.1159    0.3096    0.1433    0.0260   -0.0001
  Px  C    5    0.0003   -0.0123    0.0419   -0.0352    0.1214    0.1356    0.1119   -0.0988
  Py  C    5   -0.0154    0.0311   -0.2059    0.0303   -0.0414    0.1178    0.0344   -0.0945
  Pz  C    5    0.0171    0.0116   -0.0509   -0.1034    0.1161    0.0907   -0.0690    0.1251
  S   H    6   -0.0846    0.1843   -0.0515   -0.1263    0.2282    0.1067   -0.0281    0.0876
  S   C    7   -0.0714    0.0389    0.3806    0.0931   -0.0936   -0.2090    0.0478   -0.0422
  Px  C    7    0.0295   -0.0975   -0.0380    0.0087   -0.0100    0.2246    0.0076   -0.0274
  Py  C    7   -0.1011    0.1375   -0.0505    0.0185    0.1627   -0.0101    0.0245   -0.0145
  Pz  C    7    0.0239    0.0902   -0.0379   -0.1795    0.0721    0.0533   -0.0247    0.0656
  S   H    8   -0.0117    0.0419    0.1859   -0.0093   -0.0675   -0.1882   -0.0003    0.0232
  S   H    9   -0.0627    0.0004    0.1939    0.1465   -0.0594   -0.1742    0.0412   -0.0592
  S   C   10    0.1324   -0.2764   -0.0192    0.0117   -0.1384    0.2670   -0.0582    0.0307
  Px  C   10   -0.0205   -0.0567   -0.2295    0.0313    0.1248    0.1130   -0.0458    0.0541
  Py  C   10   -0.1344   -0.0162    0.1174    0.1482    0.0326    0.0007    0.0245   -0.0227
  Pz  C   10    0.2019    0.1123    0.0067   -0.3115   -0.0843   -0.0157    0.0189   -0.0166
  S   C   11   -0.2955   -0.3374   -0.2196    0.1990    0.1822   -0.0632   -0.0076    0.0270
  Px  C   11   -0.1195    0.0768   -0.0219   -0.2021    0.0427   -0.2129    0.0529   -0.0303
  Py  C   11    0.0042   -0.0349    0.0098    0.1213    0.0417   -0.0095    0.0135   -0.0146
  Pz  C   11    0.0809   -0.0288   -0.0162   -0.0018   -0.0622    0.2261   -0.0588    0.0447
  S   H   12   -0.1597   -0.1664   -0.0894    0.1643    0.1249   -0.1120    0.0229   -0.0108
  S   C   13   -0.3905    0.0204    0.0566   -0.2907   -0.0530   -0.1846    0.0561   -0.0501
  Px  C   13    0.0093    0.1181    0.1517   -0.1293   -0.1299    0.0136    0.0248   -0.0459
  Py  C   13   -0.0562   -0.1383   -0.1436    0.0145    0.1254   -0.1720    0.0357   -0.0155
  Pz  C   13    0.0329    0.0869    0.0665    0.0438   -0.0561    0.1839   -0.0508    0.0423
  S   H   14   -0.1980    0.0102    0.0477   -0.2058   -0.0432   -0.1750    0.0624   -0.0633
  S   C   15   -0.0797    0.3329    0.3009    0.0900   -0.1416    0.2245   -0.0460    0.0276
  Px  C   15   -0.0662   -0.0164    0.0750   -0.0745   -0.0887    0.0501    0.0037   -0.0189
  Py  C   15   -0.0874   -0.0161   -0.0132   -0.1453   -0.0299   -0.0347    0.0100   -0.0100
  Pz  C   15    0.1692    0.0685   -0.0207    0.2619    0.1081    0.0170   -0.0153    0.0270
  S   H   16   -0.0401    0.1475    0.1731    0.0500   -0.0965    0.1375   -0.0224    0.0065
  S   C   17    0.4633    0.0264   -0.1794   -0.2796   -0.0202   -0.1312    0.0408   -0.0455
  Px  C   17    0.0296    0.0825   -0.0558    0.1723    0.1290   -0.0338   -0.0007    0.0120
  Py  C   17   -0.0356   -0.1041    0.0211   -0.1218   -0.1122    0.1970   -0.0432    0.0324
  Pz  C   17   -0.0057    0.0801    0.0179   -0.0100    0.0677   -0.2136    0.0669   -0.0567
  S   H   18    0.1977    0.0196   -0.0507   -0.1981   -0.0262   -0.1486    0.0490   -0.0496
  S   C   19    0.3351    0.3130   -0.0018    0.3179    0.1883   -0.1761    0.0385   -0.0196
  Px  C   19   -0.1226    0.0724    0.1522    0.1575   -0.0418    0.1678   -0.0426    0.0399
  Py  C   19    0.0526   -0.0150   -0.0614   -0.1134   -0.0174    0.0202   -0.0076    0.0053
  Pz  C   19    0.0532   -0.0383   -0.0677   -0.0068    0.0760   -0.1935    0.0576   -0.0504
  S   H   20    0.1491    0.1377    0.0030    0.1945    0.1230   -0.1652    0.0442   -0.0317
  S   O   21    0.0014   -0.0049   -0.0024   -0.0005    0.0007   -0.0007    0.0001   -0.0000
  Px  O   21    0.0003   -0.0012   -0.0007   -0.0002    0.0001    0.0003   -0.0001    0.0000
  Py  O   21   -0.0009    0.0031    0.0040    0.0013   -0.0028    0.0047   -0.0008    0.0002
  Pz  O   21   -0.0000    0.0005    0.0011    0.0006   -0.0008    0.0016   -0.0003    0.0001
  S   H   22    0.0002   -0.0006    0.0007    0.0004   -0.0008    0.0016   -0.0003    0.0001
  S   H   23    0.0007   -0.0023   -0.0020   -0.0006    0.0013   -0.0022    0.0004   -0.0001
  S   O   24    0.0039   -0.0041    0.0005   -0.0015    0.0079    0.0058    0.0014   -0.0057
  Px  O   24   -0.0019    0.0003    0.0016    0.0004    0.0013    0.0008   -0.0001   -0.0019
  Py  O   24    0.0002    0.0004   -0.0018    0.0015   -0.0070   -0.0047   -0.0043    0.0210
  Pz  O   24   -0.0024    0.0007   -0.0019    0.0027   -0.0041    0.0004   -0.0046    0.0190
  S   H   25    0.0019   -0.0012    0.0020   -0.0018    0.0040    0.0006    0.0030   -0.0133
  S   H   26    0.0009   -0.0000   -0.0026    0.0015   -0.0061   -0.0032   -0.0027    0.0134
  S   O   27   -0.0237   -0.0088    0.0034    0.0009   -0.0036    0.0128   -0.0034    0.0030
  Px  O   27    0.0040    0.0022   -0.0005    0.0023    0.0019   -0.0035    0.0010   -0.0008
  Py  O   27    0.0094    0.0038   -0.0031   -0.0005    0.0053   -0.0251    0.0079   -0.0085
  Pz  O   27   -0.0014   -0.0003   -0.0007   -0.0001    0.0019   -0.0089    0.0029   -0.0030
  S   H   28   -0.0101   -0.0038    0.0019    0.0004   -0.0026    0.0114   -0.0035    0.0037
  S   H   29    0.0047    0.0019   -0.0025   -0.0012    0.0038   -0.0184    0.0056   -0.0058
  S   O   30    0.0020    0.0001   -0.0028   -0.0022   -0.0000    0.0045    0.0340    0.0322
  Px  O   30   -0.0003   -0.0002   -0.0006   -0.0010    0.0012    0.0038    0.0151    0.0296
  Py  O   30    0.0010    0.0002   -0.0022   -0.0025    0.0013    0.0025   -0.0153   -0.0090
  Pz  O   30   -0.0013   -0.0001    0.0048    0.0069   -0.0035   -0.0128   -0.0234   -0.0561
  S   H   31   -0.0001   -0.0000    0.0020    0.0033   -0.0018   -0.0068   -0.0227   -0.0394
  S   H   32    0.0010    0.0001   -0.0028   -0.0037    0.0022    0.0063    0.0061    0.0242
  S   O   33    0.0007   -0.0013    0.0033   -0.0015    0.0047   -0.0004   -0.0022   -0.0037
  Px  O   33   -0.0004    0.0008   -0.0036    0.0029   -0.0089    0.0040    0.0193   -0.0143
  Py  O   33   -0.0004    0.0004   -0.0019    0.0019   -0.0045    0.0078    0.0255   -0.0275
  Pz  O   33    0.0001   -0.0002    0.0002   -0.0001   -0.0001   -0.0001   -0.0005    0.0030
  S   H   34    0.0004   -0.0006    0.0020   -0.0015    0.0042   -0.0038   -0.0143    0.0138
  S   H   35   -0.0004    0.0006   -0.0029    0.0023   -0.0063    0.0045    0.0164   -0.0132
  S   O   36   -0.0008   -0.0001    0.0000    0.0005   -0.0005    0.0005   -0.0007    0.0018
  Px  O   36    0.0001    0.0001   -0.0000    0.0003   -0.0003   -0.0001   -0.0007    0.0027
  Py  O   36   -0.0000   -0.0001    0.0001   -0.0002    0.0003    0.0015    0.0007   -0.0049
  Pz  O   36   -0.0002   -0.0001    0.0001    0.0001   -0.0000    0.0006    0.0000   -0.0010
  S   H   37   -0.0000    0.0001   -0.0001    0.0000   -0.0001   -0.0009   -0.0001    0.0017
  S   H   38   -0.0001   -0.0002    0.0001   -0.0003    0.0004    0.0007    0.0008   -0.0038
  S   O   39   -0.0030    0.0057    0.0027   -0.0043    0.0094   -0.0037   -0.0204    0.0090
  Px  O   39    0.0001   -0.0002   -0.0006   -0.0012    0.0038   -0.0063   -0.0955   -0.0671
  Py  O   39   -0.0002    0.0006    0.0015   -0.0009    0.0006    0.0067    0.1224    0.1134
  Pz  O   39    0.0019   -0.0039   -0.0078    0.0170   -0.0460    0.0468    0.6525    0.4338
  S   H   40   -0.0016    0.0032    0.0040   -0.0084    0.0226   -0.0230   -0.3183   -0.2133
  S   H   41    0.0007   -0.0015   -0.0027    0.0079   -0.0214    0.0228    0.3121    0.2047
  S   O   42    0.0035   -0.0087    0.0023    0.0034   -0.0044   -0.0003    0.0040   -0.0210
  Px  O   42   -0.0004    0.0013   -0.0027    0.0014   -0.0106   -0.0110   -0.0180    0.0981
  Py  O   42    0.0002   -0.0013   -0.0010    0.0059   -0.0136   -0.0097   -0.0056    0.0080
  Pz  O   42    0.0027   -0.0065    0.0024    0.0082   -0.0157   -0.0099    0.0002   -0.0056
  S   H   43    0.0011   -0.0030    0.0005    0.0034   -0.0058   -0.0030    0.0013   -0.0178
  S   H   44    0.0002    0.0002   -0.0013   -0.0012   -0.0011   -0.0024   -0.0072    0.0434
  S   O   45   -0.0372   -0.0020    0.0016    0.0184    0.0039    0.0171   -0.0019   -0.0065
  Px  O   45    0.0108    0.0006   -0.0017   -0.0140    0.0014   -0.0129    0.0097   -0.0229
  Py  O   45   -0.0003   -0.0001   -0.0006   -0.0114   -0.0001   -0.0134    0.0070   -0.0118
  Pz  O   45    0.0013   -0.0005    0.0006    0.0017    0.0019    0.0035    0.0023   -0.0105
  S   H   46   -0.0128   -0.0004    0.0009    0.0079   -0.0017    0.0052   -0.0061    0.0164
  S   H   47   -0.0008   -0.0010   -0.0002   -0.0119    0.0009   -0.0123    0.0074   -0.0134
  S   O   48    0.0211    0.0215   -0.0439   -0.0336    0.0160    0.0326   -0.0055    0.0087
  Px  O   48   -0.0020   -0.0034   -0.0011    0.0020    0.0019    0.0047   -0.0011    0.0024
  Py  O   48    0.0000   -0.0006    0.0141    0.0221   -0.0123   -0.0367    0.0076   -0.0172
  Pz  O   48   -0.0065   -0.0093    0.0377    0.0448   -0.0288   -0.0751    0.0149   -0.0369
  S   H   49    0.0083    0.0093   -0.0271   -0.0262    0.0164    0.0398   -0.0077    0.0186
  S   H   50   -0.0017   -0.0035    0.0304    0.0354   -0.0221   -0.0556    0.0107   -0.0241
  S   O   51    0.0275   -0.0658    0.0274    0.0142    0.0016    0.0030    0.0142   -0.0154
  Px  O   51    0.0049   -0.0092    0.0148   -0.0144    0.0528    0.0425    0.0596   -0.2318
  Py  O   51    0.0034   -0.0082    0.0048   -0.0016    0.0203    0.0224    0.0159   -0.0792
  Pz  O   51    0.0033   -0.0089    0.0177   -0.0047    0.0507    0.0508    0.0774   -0.2841
  S   H   52   -0.0024    0.0052   -0.0216    0.0094   -0.0539   -0.0409   -0.0580    0.1981
  S   H   53    0.0093   -0.0205    0.0150   -0.0083    0.0419    0.0353    0.0435   -0.1683
  S   O   54    0.0009   -0.0015    0.0041   -0.0018    0.0039   -0.0046   -0.0182    0.0018
  Px  O   54   -0.0005    0.0008    0.0004   -0.0013    0.0039   -0.0019   -0.0185    0.0010
  Py  O   54    0.0003   -0.0005    0.0009   -0.0002    0.0003   -0.0015   -0.0025    0.0025
  Pz  O   54    0.0000   -0.0001    0.0003   -0.0002    0.0002   -0.0015   -0.0045    0.0008
  S   H   55    0.0005   -0.0009   -0.0005    0.0012   -0.0033    0.0022    0.0159   -0.0006
  S   H   56   -0.0002    0.0005   -0.0002   -0.0003    0.0011    0.0008   -0.0014   -0.0003
  S   H   57    0.0610   -0.1209    0.1951   -0.0706    0.2424    0.1085    0.1544   -0.1545
  S   H   58   -0.1002    0.1723   -0.0927   -0.0425    0.1669    0.1529    0.0861   -0.0957


   Root No.      25        26        27        28        29        30        31        32

                25 A      26 A      27 A      28 A      29 A      30 A      31 A      32 A   

               -18.005   -17.517   -17.461   -17.388   -17.203   -17.160   -16.952   -16.803
  
  S   C    1   -0.0555   -0.0049   -0.0162    0.0050    0.0291   -0.0180   -0.0007   -0.0162
  Px  C    1    0.1713    0.0499    0.0379   -0.0077   -0.0315    0.0416    0.0141    0.0856
  Py  C    1   -0.1849   -0.0152   -0.0497    0.0179    0.0025   -0.0145   -0.0088    0.0034
  Pz  C    1   -0.0253    0.0060   -0.0075    0.0033    0.0151   -0.0144   -0.0169    0.0364
  S   O    2   -0.0642   -0.0141   -0.0179    0.0065   -0.0416    0.0169    0.0025    0.0178
  Px  O    2    0.0729    0.0022   -0.0076    0.0035   -0.0027    0.0190   -0.0232    0.0394
  Py  O    2    0.0647   -0.0033    0.0182   -0.0090    0.0374   -0.0220   -0.0206   -0.0098
  Pz  O    2   -0.1798    0.0148   -0.0446    0.0201   -0.0025   -0.0062   -0.0144    0.0361
  S   N    3    0.0246    0.0023    0.0125   -0.0044   -0.0179    0.0031    0.0023    0.0055
  Px  N    3   -0.0017   -0.0147    0.0055   -0.0052    0.0392   -0.0376   -0.0109   -0.0420
  Py  N    3   -0.2324   -0.0722   -0.0673    0.0180   -0.0345   -0.0061   -0.0411    0.0097
  Pz  N    3    0.0750    0.0447    0.0185   -0.0019    0.0193   -0.0058    0.0077    0.0947
  S   H    4   -0.1316   -0.0508   -0.0373    0.0086   -0.0203    0.0007   -0.0243   -0.0264
  S   C    5   -0.0443   -0.0037   -0.0183    0.0057    0.0274   -0.0168   -0.0031    0.0051
  Px  C    5   -0.1412   -0.0426   -0.0493    0.0139   -0.0199    0.0021   -0.0265    0.0497
  Py  C    5   -0.0188   -0.0164   -0.0041   -0.0017    0.0454   -0.0421   -0.0184    0.0421
  Pz  C    5    0.0011    0.0133    0.0012    0.0016    0.0068   -0.0030   -0.0023    0.1191
  S   H    6   -0.0252    0.0048   -0.0061    0.0034    0.0081   -0.0021   -0.0003    0.0746
  S   C    7   -0.0063    0.0004   -0.0003    0.0012   -0.0429    0.0265    0.0113   -0.1030
  Px  C    7   -0.0507   -0.0218   -0.0243    0.0060   -0.0745    0.0350   -0.0259    0.1492
  Py  C    7   -0.0097   -0.0008   -0.0048    0.0015    0.0235   -0.0027    0.0088   -0.0798
  Pz  C    7   -0.0072    0.0073   -0.0089    0.0046   -0.0591    0.0396    0.0033    0.0238
  S   H    8    0.0208    0.0128    0.0099   -0.0012   -0.0039    0.0049    0.0144   -0.0834
  S   H    9    0.0079   -0.0010    0.0097   -0.0035    0.0554   -0.0283    0.0081   -0.0913
  S   C   10    0.0163    0.0006    0.0007   -0.0008   -0.0194    0.0113   -0.0059    0.0487
  Px  C   10    0.0296    0.0126    0.0101   -0.0028    0.0716   -0.0290    0.0138   -0.0762
  Py  C   10   -0.0367   -0.0135   -0.0161    0.0045   -0.0820    0.0437   -0.0131    0.0776
  Pz  C   10   -0.0093   -0.0018   -0.0053    0.0022   -0.0132    0.0100   -0.0001   -0.0043
  S   C   11   -0.0005    0.0014   -0.0010    0.0005   -0.0341    0.0201   -0.0034    0.0581
  Px  C   11   -0.0159    0.0003   -0.0033    0.0022    0.0024    0.0015    0.0086   -0.0775
  Py  C   11   -0.0251   -0.0122   -0.0124    0.0031   -0.0829    0.0415   -0.0200    0.1533
  Pz  C   11    0.0324    0.0112    0.0106   -0.0033    0.0695   -0.0301    0.0149   -0.1103
  S   H   12   -0.0232   -0.0095   -0.0099    0.0027   -0.0805    0.0392   -0.0177    0.1507
  S   C   13   -0.0187   -0.0052   -0.0044    0.0015   -0.0031   -0.0014   -0.0001   -0.0302
  Px  C   13   -0.0232   -0.0147   -0.0109    0.0021   -0.0542    0.0214   -0.0210    0.1291
  Py  C   13   -0.0176   -0.0031   -0.0064    0.0027   -0.0376    0.0208   -0.0024    0.0184
  Pz  C   13    0.0283    0.0105    0.0106   -0.0033    0.0623   -0.0276    0.0141   -0.0927
  S   H   14   -0.0331   -0.0139   -0.0123    0.0034   -0.0570    0.0234   -0.0158    0.0851
  S   C   15    0.0088   -0.0010    0.0007   -0.0011   -0.0181    0.0093   -0.0075    0.0785
  Px  C   15   -0.0156   -0.0123   -0.0093    0.0013   -0.0708    0.0320   -0.0244    0.1907
  Py  C   15    0.0068    0.0044    0.0049   -0.0012    0.0532   -0.0266    0.0125   -0.1143
  Pz  C   15   -0.0013    0.0017   -0.0018    0.0013   -0.0298    0.0188   -0.0000    0.0238
  S   H   16   -0.0060   -0.0082   -0.0060    0.0005   -0.0626    0.0298   -0.0203    0.1747
  S   C   17   -0.0070   -0.0051   -0.0017    0.0002    0.0066   -0.0068   -0.0055    0.0294
  Px  C   17    0.0069    0.0072    0.0042    0.0000    0.0512   -0.0226    0.0163   -0.1387
  Py  C   17    0.0127    0.0027    0.0008   -0.0005   -0.0073    0.0084   -0.0009    0.0297
  Pz  C   17   -0.0403   -0.0160   -0.0131    0.0030   -0.0685    0.0303   -0.0174    0.1208
  S   H   18   -0.0245   -0.0131   -0.0077    0.0008   -0.0503    0.0205   -0.0179    0.1399
  S   C   19   -0.0231   -0.0045   -0.0072    0.0032   -0.0357    0.0175   -0.0014   -0.0043
  Px  C   19    0.0043    0.0008   -0.0015    0.0002   -0.0385    0.0231   -0.0044    0.0653
  Py  C   19    0.0168    0.0072    0.0079   -0.0019    0.0669   -0.0322    0.0139   -0.1091
  Pz  C   19   -0.0341   -0.0134   -0.0128    0.0033   -0.0669    0.0296   -0.0164    0.1017
  S   H   20   -0.0328   -0.0112   -0.0127    0.0036   -0.0777    0.0366   -0.0144    0.0941
  S   O   21    0.0000    0.0000    0.0000   -0.0000    0.0001   -0.0000   -0.0000    0.0002
  Px  O   21   -0.0001   -0.0001   -0.0001    0.0000   -0.0015    0.0007   -0.0007    0.0068
  Py  O   21   -0.0004   -0.0005   -0.0004    0.0000   -0.0047    0.0023   -0.0018    0.0166
  Pz  O   21   -0.0001   -0.0002   -0.0002    0.0000   -0.0018    0.0009   -0.0007    0.0063
  S   H   22   -0.0001   -0.0002   -0.0002    0.0000   -0.0020    0.0010   -0.0008    0.0074
  S   H   23    0.0002    0.0003    0.0002   -0.0000    0.0025   -0.0012    0.0010   -0.0092
  S   O   24    0.0038    0.0324    0.0226   -0.0043    0.0007    0.0014   -0.0249   -0.0288
  Px  O   24   -0.0032    0.0953    0.0673   -0.0128    0.0043    0.0059   -0.2556   -0.1257
  Py  O   24   -0.0242   -0.1710   -0.1395    0.0358    0.0042   -0.0186    0.5574    0.0509
  Pz  O   24   -0.0224   -0.1251   -0.1088    0.0319    0.0099   -0.0178    0.4575   -0.0682
  S   H   25    0.0152    0.1009    0.0843   -0.0230   -0.0047    0.0122   -0.3432    0.0088
  S   H   26   -0.0136   -0.1215   -0.0960    0.0237    0.0019   -0.0118    0.3500    0.0447
  S   O   27    0.0018   -0.0004   -0.0001   -0.0001    0.0029   -0.0011    0.0043   -0.0022
  Px  O   27   -0.0007   -0.0005   -0.0004    0.0001   -0.0019    0.0008   -0.0006    0.0043
  Py  O   27   -0.0055    0.0000   -0.0006    0.0004   -0.0150    0.0053   -0.0231    0.0326
  Pz  O   27   -0.0021    0.0002   -0.0002    0.0001   -0.0051    0.0020   -0.0072    0.0079
  S   H   28    0.0023    0.0001    0.0003   -0.0002    0.0064   -0.0022    0.0094   -0.0144
  S   H   29   -0.0036    0.0002   -0.0003    0.0002   -0.0088    0.0031   -0.0133    0.0163
  S   O   30    0.0125    0.0036    0.0024   -0.0005   -0.0225   -0.0306    0.0006    0.0003
  Px  O   30    0.0137    0.0095    0.0051   -0.0009   -0.2275   -0.3066   -0.0029   -0.0201
  Py  O   30   -0.0039    0.0004   -0.0004    0.0002   -0.0558   -0.0709   -0.0015   -0.0052
  Pz  O   30   -0.0249   -0.0180   -0.0092    0.0014    0.4404    0.5864    0.0059    0.0369
  S   H   31   -0.0172   -0.0104   -0.0056    0.0009    0.2244    0.3001    0.0026    0.0179
  S   H   32    0.0110    0.0090    0.0044   -0.0007   -0.2338   -0.3112   -0.0034   -0.0200
  S   O   33    0.0237   -0.0027    0.0052   -0.0026   -0.0009    0.0016   -0.0231   -0.0011
  Px  O   33   -0.1563    0.3604    0.1921   -0.0280   -0.0091    0.0084    0.2907    0.0462
  Py  O   33   -0.1826    0.5384    0.3098   -0.0522   -0.0127    0.0189    0.1343    0.0291
  Pz  O   33   -0.0177    0.0492    0.0281   -0.0048   -0.0003    0.0021   -0.0321   -0.0047
  S   H   34    0.1069   -0.2898   -0.1627    0.0263    0.0072   -0.0090   -0.1357   -0.0246
  S   H   35   -0.1236    0.3036    0.1677   -0.0264   -0.0067    0.0088    0.1221    0.0214
  S   O   36   -0.0019   -0.0049    0.0234    0.0870    0.0017   -0.0010   -0.0015   -0.0113
  Px  O   36   -0.0046    0.0113   -0.0401   -0.1092    0.0012   -0.0005    0.0002   -0.0169
[...]
 PZ  N   3   0.76678     0.00012    -0.01801    -0.00000     0.00008     0.00008
  
  S  H   4  -0.00184     0.00056     0.04664    -0.00000     0.00008     0.00005
  
  S  C   5  -0.00988    -0.00006     0.01020    -0.00002    -0.00024     0.00003
 PX  C   5   0.00433    -0.00008    -0.03631     0.00000     0.00017    -0.00003
 PY  C   5   0.03958    -0.00000     0.01744     0.00003     0.00005    -0.00005
 PZ  C   5   0.04992     0.00000    -0.00914     0.00002    -0.00017    -0.00009
  
  S  H   6  -0.02046    -0.00008     0.00290     0.00000     0.00006    -0.00002
  
  S  C   7   0.02508    -0.00107    -0.00818     0.00004    -0.00093    -0.00001
 PX  C   7   0.00882     0.00048     0.00724    -0.00003     0.00136    -0.00060
 PY  C   7   0.02828    -0.00042     0.00626    -0.00004     0.00091     0.00002
 PZ  C   7   0.01738     0.00164    -0.00358     0.00001    -0.00069     0.00016
  
  S  H   8   0.00144    -0.00002     0.01480    -0.00004     0.00238    -0.00050
  
  S  H   9  -0.00265     0.00267    -0.00157     0.00001    -0.00002    -0.00003
  
  S  C  10  -0.00422    -0.00000     0.00297    -0.00001     0.00003    -0.00024
 PX  C  10   0.00771     0.00006    -0.00291     0.00013     0.00018    -0.00076
 PY  C  10   0.00256     0.00004     0.00337     0.00019     0.00013    -0.00012
 PZ  C  10   0.00336     0.00014     0.00000     0.00012     0.00009    -0.00026
  
  S  C  11   0.00059    -0.00020    -0.00082    -0.00001    -0.00015     0.00046
 PX  C  11  -0.00229    -0.00005     0.00054    -0.00040     0.00008    -0.00052
 PY  C  11  -0.00317    -0.00029    -0.00000    -0.00057    -0.00007    -0.00005
 PZ  C  11  -0.00154     0.00025    -0.00092    -0.00046    -0.00022     0.00048
  
  S  H  12   0.00032     0.00052    -0.00028     0.00000     0.00001    -0.00012
  
  S  C  13  -0.00021     0.00002     0.00032    -0.00005    -0.00001     0.00014
 PX  C  13   0.00007    -0.00001    -0.00052     0.00010    -0.00003     0.00007
 PY  C  13  -0.00063     0.00000     0.00016     0.00026    -0.00004     0.00028
 PZ  C  13  -0.00031     0.00001    -0.00016     0.00018    -0.00006     0.00035
  
  S  H  14   0.00016     0.00003    -0.00021     0.00004    -0.00003     0.00010
  
  S  C  15  -0.00025    -0.00002     0.00005     0.00006    -0.00006     0.00037
 PX  C  15   0.00135     0.00002     0.00012     0.00031     0.00011    -0.00041
 PY  C  15   0.00219     0.00002     0.00026     0.00087     0.00010    -0.00019
 PZ  C  15   0.00164     0.00005     0.00008     0.00075    -0.00002     0.00042
  
  S  H  16   0.00002     0.00001     0.00008     0.00015     0.00003    -0.00013
  
  S  C  17   0.00040    -0.00012    -0.00008    -0.00002    -0.00063     0.00558
 PX  C  17  -0.00246    -0.00002    -0.00001     0.00053     0.00056    -0.00449
 PY  C  17  -0.00342    -0.00014    -0.00012     0.00062    -0.00001    -0.00009
 PZ  C  17  -0.00278     0.00006    -0.00069     0.00042    -0.00091     0.00558
  
  S  H  18   0.00026    -0.00000    -0.00015     0.00009     0.00060    -0.01192
  
  S  C  19  -0.00025     0.00001     0.00022    -0.00079     0.00005    -0.00022
 PX  C  19  -0.00036    -0.00003    -0.00035    -0.00135    -0.00004    -0.00005
 PY  C  19  -0.00110    -0.00000     0.00019    -0.00092     0.00009    -0.00074
 PZ  C  19  -0.00075    -0.00001    -0.00000    -0.00158    -0.00000     0.00016
  
  S  H  20   0.00010    -0.00002    -0.00002     0.00146     0.00006    -0.00057
  
  S  O  21   0.00000    -0.00000    -0.00000    -0.00000    -0.00000     0.00000
 PX  O  21   0.00000    -0.00000    -0.00000    -0.00000    -0.00000     0.00000
 PY  O  21  -0.00000     0.00000    -0.00000     0.00001     0.00000    -0.00000
 PZ  O  21   0.00000    -0.00000    -0.00000    -0.00000    -0.00000     0.00000
  
  S  H  22  -0.00000     0.00000     0.00000     0.00000     0.00000    -0.00000
  
  S  H  23  -0.00000     0.00000     0.00000     0.00002     0.00000    -0.00000
  
  S  O  24   0.00001    -0.00000     0.00049     0.00011    -0.02056    -0.00006
 PX  O  24   0.00008     0.00000    -0.00106    -0.00001     0.81333     0.00012
 PY  O  24   0.00001    -0.00000     0.00095    -0.00003     0.54036    -0.00021
 PZ  O  24   0.00008     0.00000    -0.00006    -0.00019    -0.20276    -0.00007
  
  S  H  25  -0.00002     0.00000     0.00007    -0.00049     0.00174    -0.00018
  
  S  H  26   0.00001     0.00000    -0.00291    -0.00007     0.00132     0.00044
  
  S  O  27  -0.00002    -0.00000    -0.00001     0.00016    -0.00018     0.00093
 PX  O  27   0.00001     0.00000     0.00001     0.90116     0.00014    -0.00060
 PY  O  27  -0.00003    -0.00000    -0.00001    -0.16541    -0.00026     0.00121
 PZ  O  27  -0.00005    -0.00000    -0.00002     0.40067    -0.00040     0.00185
  
  S  H  28   0.00003     0.00000     0.00000     0.00000     0.00008    -0.00043
  
  S  H  29   0.00007     0.00000     0.00001    -0.00001     0.00067    -0.00443
  
  S  O  30   0.00061     0.00019    -0.00018     0.00000    -0.00000     0.00000
 PX  O  30  -0.00059     0.85126     0.00021    -0.00000     0.00000     0.00000
 PY  O  30   0.00081     0.23111    -0.00036    -0.00000    -0.00000     0.00000
 PZ  O  30   0.00067     0.47109    -0.00025     0.00000    -0.00000    -0.00000
  
  S  H  31  -0.00255    -0.00006     0.00046    -0.00000     0.00000    -0.00000
  
  S  H  32  -0.00032    -0.00001     0.00012    -0.00000     0.00000    -0.00000
  
  S  O  33   0.00053    -0.00000     0.00565     0.00000     0.00064    -0.00007
 PX  O  33   0.00054    -0.00000     0.00130     0.00001    -0.00109    -0.00005
 PY  O  33   0.00070    -0.00000     0.00274    -0.00001    -0.00074    -0.00002
 PZ  O  33   0.00114    -0.00000     0.00937     0.00000     0.00114    -0.00010
  
  S  H  34  -0.00052     0.00000    -0.00957    -0.00000    -0.00369     0.00010
  
  S  H  35  -0.00173     0.00000    -0.02083    -0.00000    -0.00025     0.00018
  
  S  O  36   0.00003     0.00000    -0.00005    -0.00000    -0.00010    -0.00034
 PX  O  36  -0.00006    -0.00000     0.00013    -0.00000     0.00022     0.00057
 PY  O  36   0.00002     0.00000    -0.00004     0.00000     0.00011     0.00022
 PZ  O  36   0.00001    -0.00000    -0.00001     0.00000     0.00002    -0.00002
  
  S  H  37  -0.00003    -0.00000     0.00004     0.00000     0.00025     0.00101
  
  S  H  38  -0.00009    -0.00000     0.00015    -0.00000     0.00014     0.00079
  
  S  O  39   0.00038    -0.00071    -0.00151     0.00000    -0.00000    -0.00000
 PX  O  39  -0.00047     0.00075     0.00178    -0.00000     0.00000     0.00000
 PY  O  39   0.00015    -0.00008     0.00035    -0.00000     0.00000     0.00000
 PZ  O  39  -0.00008     0.00063    -0.00130     0.00000    -0.00000    -0.00000
  
  S  H  40  -0.00082     0.00230     0.00200    -0.00000     0.00000     0.00000
  
  S  H  41  -0.00106     0.00091     0.00249    -0.00000     0.00000     0.00000
  
  S  O  42   0.00058     0.00000    -0.00090    -0.00000    -0.00014    -0.00017
 PX  O  42   0.00011     0.00000     0.00047    -0.00000     0.00007     0.00003
 PY  O  42   0.00003     0.00000     0.00020    -0.00000     0.00005     0.00000
 PZ  O  42   0.00003    -0.00000     0.00012     0.00000     0.00002    -0.00000
  
  S  H  43  -0.00090    -0.00000     0.00110     0.00000     0.00016     0.00024
  
  S  H  44  -0.00122    -0.00000     0.00118     0.00000     0.00018     0.00026
  
  S  O  45   0.00038    -0.00000    -0.00108     0.00005    -0.01326     0.00394
 PX  O  45  -0.00003     0.00000     0.00015    -0.00009     0.02208    -0.57181
 PY  O  45   0.00117    -0.00000    -0.00304     0.00002    -0.00571     0.14843
 PZ  O  45  -0.00017     0.00000     0.00053    -0.00006     0.01677     0.80667
  
  S  H  46  -0.00033     0.00000     0.00094    -0.00021     0.06201     0.00002
  
  S  H  47  -0.00130     0.00000     0.00325    -0.00002     0.00879     0.00010
  
  S  O  48   0.00029     0.00001     0.00011     0.00003    -0.00001    -0.00000
 PX  O  48  -0.00012     0.00001    -0.00005    -0.00002     0.00001    -0.00000
 PY  O  48   0.00056    -0.00007     0.00024     0.00005    -0.00002    -0.00000
 PZ  O  48   0.00023    -0.00020     0.00008     0.00000    -0.00001     0.00000
  
  S  H  49  -0.00027    -0.00031    -0.00009    -0.00005     0.00000     0.00000
  
  S  H  50  -0.00097     0.00017    -0.00034    -0.00011     0.00004     0.00000
  
  S  O  51   0.00435    -0.00000    -0.01643     0.00000    -0.00175    -0.00100
 PX  O  51  -0.00163     0.00000     0.00496     0.00000    -0.00030    -0.00060
 PY  O  51   0.00356     0.00000    -0.01042    -0.00000     0.00009    -0.00105
 PZ  O  51  -0.00832     0.00000     0.02606    -0.00000     0.00212     0.00052
  
  S  H  52  -0.01436     0.00001     0.07797    -0.00000     0.00519     0.00226
  
  S  H  53  -0.00438    -0.00000     0.01159    -0.00000     0.00163     0.00284
  
  S  O  54  -0.00048    -0.00001    -0.00035     0.00000    -0.00000    -0.00000
 PX  O  54   0.00077     0.00001     0.00066    -0.00000     0.00000     0.00000
 PY  O  54   0.00002     0.00000     0.00017     0.00000     0.00000     0.00000
 PZ  O  54   0.00066     0.00002     0.00070    -0.00000     0.00000     0.00000
  
  S  H  55   0.00251     0.00002     0.00104    -0.00000     0.00000     0.00000
  
  S  H  56   0.00078     0.00002     0.00046     0.00000     0.00000     0.00000
  
  S  H  57  -0.00277     0.00001     0.05746     0.00000    -0.00018    -0.00007
  
  S  H  58  -0.00380     0.00012    -0.00173     0.00000    -0.00005     0.00004




    ROOT NO.   73          74          75          76          77

           -11.53153   -10.75998   -10.40061   -10.24433   -10.14436
  
  
  S  C   1  -0.00002     0.00000    -0.00040    -0.00027     0.00021
 PX  C   1  -0.00002     0.00000    -0.00255    -0.00212     0.00163
 PY  C   1   0.00002     0.00000    -0.00332    -0.00271     0.00219
 PZ  C   1   0.00008     0.00000    -0.00399    -0.00358     0.00296
  
  S  O   2  -0.00000     0.00000    -0.00038    -0.00034     0.00024
 PX  O   2   0.00001    -0.00000     0.00021     0.00018    -0.00011
 PY  O   2  -0.00002    -0.00000     0.00002     0.00014    -0.00012
 PZ  O   2  -0.00003    -0.00000     0.00161     0.00164    -0.00123
  
  S  N   3   0.00006    -0.00000     0.00320     0.00233    -0.00162
 PX  N   3   0.00005    -0.00000     0.00308     0.00242    -0.00158
 PY  N   3  -0.00003     0.00000    -0.00255    -0.00257     0.00162
 PZ  N   3   0.00002     0.00000     0.00041    -0.00013     0.00006
  
  S  H   4  -0.00003     0.00000    -0.00323    -0.00253     0.00191
  
  S  C   5   0.00022     0.00001    -0.02272    -0.01852     0.01257
 PX  C   5   0.00008    -0.00000     0.00677     0.00379    -0.00302
 PY  C   5  -0.00048    -0.00001     0.02376     0.02170    -0.01555
 PZ  C   5  -0.00025    -0.00001     0.02059     0.01826    -0.01323
  
  S  H   6  -0.00012     0.00000     0.00256     0.00032    -0.00026
  
  S  C   7  -0.00105    -0.00001     0.00548     0.00584    -0.00320
 PX  C   7   0.00038    -0.00001     0.00429     0.00136     0.00004
 PY  C   7  -0.00093     0.00001     0.02582     0.01306    -0.00996
 PZ  C   7   0.00127    -0.00000     0.01446     0.00687    -0.00507
  
  S  H   8  -0.00024    -0.00001     0.01576     0.01628    -0.01161
  
  S  H   9   0.00237    -0.00001     0.01079     0.00759    -0.00613
  
  S  C  10  -0.00037    -0.00003     0.00277     0.00373    -0.00258
 PX  C  10  -0.00003    -0.00008     0.27118     0.20368    -0.11137
 PY  C  10   0.00008    -0.00006     0.39136     0.28954    -0.15912
 PZ  C  10  -0.00012    -0.00005     0.24626     0.18384    -0.09579
  
  S  C  11  -0.00069    -0.00009    -0.00034     0.01216     0.00256
 PX  C  11  -0.00110    -0.00015     0.02398     0.34164    -0.02374
 PY  C  11  -0.00153     0.00005     0.04043     0.48615    -0.03792
 PZ  C  11  -0.00031    -0.00001     0.03105     0.39281    -0.02706
  
  S  H  12   0.00119     0.00003    -0.00324    -0.00141     0.00342
  
  S  C  13   0.00011     0.00013     0.01022    -0.01827    -0.01708
 PX  C  13   0.00050     0.00002    -0.07764     0.18130     0.15366
 PY  C  13   0.00186     0.00008    -0.14926     0.35492     0.29213
 PZ  C  13   0.00162     0.00024    -0.14030     0.32702     0.27132
  
  S  H  14   0.00022     0.00006    -0.00703     0.01015     0.00855
  
  S  C  15  -0.00001    -0.00108     0.00056     0.00116    -0.02298
 PX  C  15  -0.00018    -0.00125    -0.01878     0.01756     0.29301
 PY  C  15  -0.00033     0.00044    -0.03652     0.03616     0.51838
 PZ  C  15  -0.00017    -0.00009    -0.02703     0.02874     0.36789
  
  S  H  16   0.00009     0.00228    -0.00449     0.00348     0.00377
  
  S  C  17   0.00013    -0.00006     0.03814    -0.00534    -0.00009
 PX  C  17   0.00062    -0.00004     0.36347    -0.03329     0.03234
 PY  C  17   0.00103     0.00013     0.50960    -0.04658     0.04659
 PZ  C  17   0.00043     0.00002     0.33283    -0.03068     0.03089
  
  S  H  18   0.00001     0.00002    -0.00513     0.00222    -0.00038
  
  S  C  19  -0.00006    -0.00000     0.00587    -0.00609     0.01181
 PX  C  19  -0.00087     0.00004     0.20904    -0.13303     0.27452
 PY  C  19  -0.00103     0.00016     0.26859    -0.16548     0.36293
 PZ  C  19  -0.00071    -0.00005     0.18914    -0.11567     0.25411
  
  S  H  20   0.00006     0.00016    -0.00527     0.00447    -0.00400
  
  S  O  21  -0.00000     0.00005     0.00001    -0.00001     0.00016
 PX  O  21  -0.00000    -0.39628    -0.00000    -0.00003     0.00025
 PY  O  21   0.00000    -0.05147     0.00002     0.00002    -0.00030
 PZ  O  21  -0.00000     0.91668     0.00002    -0.00001     0.00005
  
  S  H  22   0.00000    -0.00001     0.00001     0.00002    -0.00059
  
  S  H  23   0.00000     0.00001     0.00000     0.00003    -0.00062
  
  S  O  24   0.00003    -0.00000    -0.00002    -0.00007     0.00006
 PX  O  24  -0.00001    -0.00000     0.00002     0.00001    -0.00000
 PY  O  24  -0.00001    -0.00000    -0.00007    -0.00007     0.00005
 PZ  O  24  -0.00006    -0.00000     0.00002     0.00009    -0.00007
  
  S  H  25  -0.00015     0.00000    -0.00007     0.00017    -0.00012
  
  S  H  26  -0.00002     0.00000     0.00009     0.00016    -0.00012
  
  S  O  27  -0.00000    -0.00000     0.00240    -0.00087     0.00124
 PX  O  27  -0.00000     0.00000    -0.00136     0.00039    -0.00077
 PY  O  27   0.00000     0.00000     0.00194    -0.00083     0.00105
 PZ  O  27  -0.00000    -0.00000     0.00445    -0.00174     0.00246
  
  S  H  28   0.00000     0.00001    -0.00340     0.00155    -0.00228
  
  S  H  29   0.00000     0.00000    -0.01210     0.00365    -0.00496
  
  S  O  30  -0.00002    -0.00000    -0.00006    -0.00004     0.00003
 PX  O  30  -0.00000    -0.00000     0.00002     0.00001    -0.00001
 PY  O  30  -0.00002    -0.00000    -0.00008    -0.00004     0.00004
 PZ  O  30  -0.00000     0.00000    -0.00004    -0.00004     0.00003
  
  S  H  31   0.00001     0.00000     0.00015     0.00009    -0.00007
  
  S  H  32   0.00004     0.00000     0.00014     0.00008    -0.00007
  
  S  O  33   0.00000    -0.00000    -0.00004    -0.00003     0.00003
 PX  O  33   0.00000    -0.00000    -0.00003    -0.00003     0.00003
 PY  O  33  -0.00000     0.00000    -0.00003    -0.00002     0.00002
 PZ  O  33   0.00000     0.00000    -0.00006    -0.00006     0.00005
  
  S  H  34  -0.00000     0.00000     0.00006     0.00005    -0.00005
  
  S  H  35  -0.00000    -0.00000     0.00012     0.00010    -0.00009
  
  S  O  36   0.00000    -0.00000    -0.00002     0.00000    -0.00001
 PX  O  36  -0.00000     0.00000     0.00004    -0.00000     0.00001
 PY  O  36  -0.00000     0.00000     0.00001    -0.00000     0.00001
 PZ  O  36  -0.00000     0.00000    -0.00000    -0.00000     0.00000
  
  S  H  37  -0.00000     0.00000     0.00007    -0.00001     0.00003
  
  S  H  38  -0.00000     0.00000     0.00007    -0.00001     0.00001
  
  S  O  39   0.00000    -0.00000     0.00008     0.00006    -0.00005
 PX  O  39  -0.00000     0.00000    -0.00010    -0.00008     0.00006
 PY  O  39   0.00000     0.00000    -0.00001    -0.00001     0.00001
 PZ  O  39   0.00000    -0.00000     0.00007     0.00006    -0.00004
  
  S  H  40  -0.00000     0.00000    -0.00013    -0.00010     0.00008
  
  S  H  41  -0.00000     0.00000    -0.00019    -0.00013     0.00011
  
  S  O  42   0.00000    -0.00000    -0.00017    -0.00006     0.00004
 PX  O  42   0.00000    -0.00000    -0.00017    -0.00003     0.00001
 PY  O  42   0.00000     0.00000    -0.00008    -0.00004     0.00004
 PZ  O  42  -0.00000    -0.00000     0.00002     0.00002    -0.00002
  
  S  H  43  -0.00001     0.00000     0.00026     0.00012    -0.00011
  
  S  H  44  -0.00001     0.00000     0.00061     0.00012    -0.00010
  
  S  O  45   0.00000    -0.00000     0.00001    -0.00011     0.00007
 PX  O  45  -0.00001    -0.00000    -0.00019     0.00008    -0.00004
 PY  O  45   0.00000    -0.00000    -0.00019    -0.00017     0.00010
 PZ  O  45  -0.00001     0.00000    -0.00001     0.00011    -0.00013
  
  S  H  46  -0.00001     0.00000    -0.00056     0.00028    -0.00015
  
  S  H  47  -0.00000     0.00000     0.00036     0.00027    -0.00012
  
  S  O  48   0.00337    -0.00000     0.00117     0.00195    -0.00063
 PX  O  48   0.96912    -0.00000    -0.00017    -0.00102     0.00010
 PY  O  48   0.24421    -0.00000     0.00210     0.00292    -0.00109
 PZ  O  48  -0.03360    -0.00000     0.00056     0.00032    -0.00031
  
  S  H  49   0.00000     0.00000    -0.00175    -0.00392     0.00118
  
  S  H  50  -0.00008     0.00000    -0.00434    -0.00794     0.00240
  
  S  O  51   0.00000    -0.00000    -0.00034    -0.00024     0.00018
 PX  O  51   0.00000    -0.00000    -0.00005     0.00002    -0.00002
 PY  O  51   0.00000     0.00000    -0.00030    -0.00019     0.00015
 PZ  O  51  -0.00000    -0.00000     0.00044     0.00042    -0.00031
  
  S  H  52  -0.00000     0.00000     0.00107     0.00078    -0.00063
  
  S  H  53  -0.00001     0.00000     0.00068     0.00030    -0.00026
  
  S  O  54   0.00000    -0.00000     0.00001     0.00001    -0.00001
 PX  O  54  -0.00000     0.00000    -0.00003    -0.00003     0.00002
 PY  O  54  -0.00000     0.00000     0.00000     0.00000    -0.00000
 PZ  O  54  -0.00000     0.00000    -0.00001    -0.00001     0.00001
  
  S  H  55  -0.00000     0.00000    -0.00006    -0.00004     0.00003
  
  S  H  56  -0.00000     0.00000    -0.00000     0.00001    -0.00000
  
  S  H  57   0.00002    -0.00000     0.00085     0.00074    -0.00051
  
  S  H  58   0.00003    -0.00000     0.00243     0.00334    -0.00131

          BONDING CONTRIBUTION OF EACH M.O.

  1.8264  1.6166  1.9087  1.6814  1.6682  1.7458  1.7731  1.8160  1.6877  0.0612
  1.6286  0.0000  0.0001  1.7117  1.7537  1.6962  1.7125  1.7246  1.6955  1.5133
  0.0000  0.0083  1.6856  1.6410  1.9955  1.7371  1.6552  1.7095  1.6214  1.6241
  0.0017  1.9985  1.9938  0.0526  1.9000  0.0007  1.9982  1.6169  1.6343  0.0001
  1.9959  1.9959  0.0540  0.0002  1.9990  1.6531  1.7118  0.0240  0.0007  1.9701
  1.9530  1.9251  1.9552  1.9461  1.9512  1.9629  1.9422  1.9959  1.9386  1.0111
  0.0000  0.0065  0.0598  0.0668  0.0001  0.0013  1.1538  0.0001  0.2877  0.0001
  0.0315  0.0017  0.0002  0.0001  1.9811  1.9766  2.0286 -1.9969 -2.0073 -2.0579
 -1.8559 -1.9988 -1.7462 -1.6916 -1.7268 -1.9611 -1.7201 -1.7403 -1.8436 -1.8297
 -1.8360 -1.7383 -1.8411 -1.8690 -1.8724 -1.8197 -1.7218 -1.7012 -1.7620 -1.9443
 -1.9470 -1.8918 -1.7673 -1.8980 -1.6798 -1.9417 -1.8753 -1.9184 -1.7072 -1.9390
 -1.9271 -1.9176 -1.9200 -1.7482 -1.9291 -1.9441 -1.9661 -1.9630 -1.6890 -1.7444
 -1.9732 -1.6737 -1.7062 -1.7192 -1.6691 -1.6642 -1.6759

           DATA FOR GRAPH WRITTEN TO DISK

 **********************
 *                    *
 * JOB ENDED NORMALLY *
 *                    *
 **********************



 TOTAL JOB TIME:             0.80 SECONDS

 == MOPAC DONE ==
