 *******************************************************************************
 ** Site#: 34139        For non-commercial use only    Version 20.070L 64BITS **
 *******************************************************************************
 ** Cite this program as: MOPAC2016, Version: 20.070L, James J. P. Stewart,   **
 ** Stewart Computational Chemistry, web: HTTP://OpenMOPAC.net. Days left: 322**
 *******************************************************************************
 **                                                                           **
 **                                MOPAC2016                                  **
 **                                                                           **
 *******************************************************************************

                              PM7 CALCULATION RESULTS

 *******************************************************************************
 *  CALCULATION DONE:                                Thu Apr 23 14:14:16 2020  *
 *  PM7        - The PM7 Hamiltonian to be used
 *  QMMM       - Generate energies and gradients for use in MM codes
 *  DIPOLE     - PRINT DIPOLE INSTEAD OF ENERGY IN TRAJECTORIES
 *  GEO-OK     - OVERRIDE INTERATOMIC DISTANCE AND OTHER SAFETY CHECKS
 *
 *
 *
 *                 CHARGE ON SYSTEM = 0
 *
 *
 *
 *  LET        - OVERRIDE SOME SAFETY CHECKS
 *  XYZ        - CARTESIAN COORDINATE SYSTEM TO BE USED
 *  FORCE      - FORCE CALCULATION SPECIFIED
 *  1SCF       - DO 1 SCF AND THEN STOP 
 *  T=         - A TIME OF      2.0 MINUTES REQUESTED
 *  DUMP=N     - RESTART FILE WRITTEN EVERY  7200.000 SECONDS
 *  CUTOFF=    - CUTOFF FOR NDDO AND DIPOLE INTERACTIONS =  9.00A
 *  AUX        - OUTPUT AUXILIARY INFORMATION
 *  GRADIENTS  - ALL GRADIENTS TO BE PRINTED
 *  VECTORS    - FINAL EIGENVECTORS TO BE PRINTED
 *  EIGEN      - CONVERT LMO's INTO EIGENVECTORS
 *  LARGE      - EXPANDED OUTPUT TO BE PRINTED
 *  AIGOUT     - IN ARC FILE, INCLUDE AB-INITIO GEOMETRY
 *  GRAPH      - GENERATE FILE FOR GRAPHICS
 *  LOCALIZE   - LOCALIZED ORBITALS TO BE PRINTED
 *  PI         - BONDS MATRIX, SPLIT INTO SIGMA-PI-DELL COMPONENTS, TO BE PRINTED
 *******************************************************************************
PM7 XYZ T=2M 1SCF LOCALIZE AIGOUT GRAPH GRAPHF LARGE DIPOLE PI FORCE CUTOFF=9.0 AUX LET GRAD QMMM GEO-OK EIGEN VECTORS CHARGE=0
 Test System

   ATOM   CHEMICAL          X               Y               Z
  NUMBER   SYMBOL      (ANGSTROMS)     (ANGSTROMS)     (ANGSTROMS)
 
     1       C          3.56532000  *   0.52181400  *   0.68707200  *
     2       O          3.26895200  *  -0.26017000  *   1.60627500  *
     3       N          4.74780800  *   0.67279400  *   0.10945300  *
     4       H          5.00071300  *   1.42865500  *  -0.55455400  *
     5       C          5.94675700  *  -0.06945300  *   0.56029500  *
     6       H          5.94885000  *  -0.26398200  *   1.59533000  *
     7       C          6.15865900  *  -1.43143700  *  -0.24427600  *
     8       H          5.21853000  *  -1.78830100  *  -0.76433400  *
     9       H          6.84752700  *  -1.46149000  *  -1.12256500  *
    10       C          6.56978100  *  -2.49740600  *   0.72658800  *
    11       C          5.60309800  *  -3.21872900  *   1.43965100  *
    12       H          4.54346100  *  -3.03271400  *   1.33085500  *
    13       C          5.97095300  *  -4.25656500  *   2.32501000  *
    14       H          5.22625000  *  -4.85105200  *   2.89526400  *
    15       C          7.29380600  *  -4.53274700  *   2.49279400  *
    16       H          7.62230300  *  -5.34418700  *   3.17309700  *
    17       C          7.97898600  *  -2.83452700  *   0.87584700  *
    18       H          8.76713300  *  -2.25392000  *   0.54976600  *
    19       C          8.29131000  *  -3.77324600  *   1.85881400  *
    20       H          9.33650500  *  -4.04762300  *   2.05895800  *
    21       O          6.34178800  *   3.67519700  *  -1.96635200  *
    22       H          5.54391400  *   3.81347700  *  -1.46206500  *
    23       H          7.08998300  *   3.70516700  *  -1.37351700  *
    24       O          3.39824200  *  -2.66250400  *   3.40545200  *
    25       H          2.41778600  *  -2.52325100  *   3.74146100  *
    26       H          3.58466400  *  -1.87009700  *   2.87292600  *
    27       O         11.48426000  *  -2.19205700  *   0.22913000  *
    28       H         12.30933800  *  -2.10746900  *  -0.18448300  *
    29       H         11.17780500  *  -1.34117000  *   0.81735400  *
    30       O          9.39212700  *  -1.32956700  *   3.44504200  *
    31       H          9.78924700  *  -2.14424900  *   3.36584000  *
    32       H          9.81178000  *  -0.79497600  *   2.71046600  *
    33       O         11.06073600  *  -4.63895000  *   0.86515900  *
    34       H         11.28744300  *  -3.78248700  *   0.48120700  *
    35       H         10.47446000  *  -5.03389800  *   0.12670800  *
    36       O          9.74307800  *  -3.09439700  *  -1.59674800  *
    37       H         10.47650500  *  -2.85150100  *  -0.94992200  *
    38       H          9.24405900  *  -2.27400200  *  -1.64039000  *
    39       O          4.61426300  *  -0.66750600  *  -3.31193700  *
    40       H          4.88526500  *   0.13193200  *  -2.90428700  *
    41       H          3.79529100  *  -0.41751700  *  -3.71892800  *
    42       O          6.70178700  *  -6.07273700  *  -0.05630600  *
    43       H          7.59719800  *  -6.09722600  *  -0.49820800  *
    44       H          6.91585200  *  -5.20728700  *   0.39174900  *
    45       O          7.00858600  *  -0.23182300  *   3.83521200  *
    46       H          7.92459800  *  -0.62564600  *   3.73179000  *
    47       H          6.43921500  *  -0.90362500  *   4.18894500  *
    48       O          4.11443300  *   0.93007600  *   4.23714100  *
    49       H          4.40686600  *   1.85342600  *   3.99975100  *
    50       H          4.67606400  *   0.47418400  *   3.73303800  *
    51       O          6.33938800  *  -2.75024400  *  -3.33506700  *
    52       H          7.24605700  *  -2.35146000  *  -3.56503600  *
    53       H          5.73737800  *  -2.05822800  *  -3.16738200  *
    54       O          4.65149300  *   1.88856900  *  -2.85192400  *
    55       H          5.48374500  *   2.41856800  *  -2.80500800  *
    56       H          4.01965600  *   2.55029000  *  -2.36090900  *
    57       O          1.98857100  *  -0.39022400  *   3.78387700  *
    58       H          2.48270400  *  -0.34464500  *   2.95248100  *
    59       H          2.64615900  *   0.07759200  *   4.36979400  *
    60       O         10.98314700  *  -3.48957700  *   3.27650000  *
    61       H         11.59302300  *  -2.81941700  *   3.66795000  *
    62       H         11.38262900  *  -3.76109600  *   2.39579900  *
    63       O          3.91554600  *  -5.50933000  *   4.93641900  *
    64       H          3.61519800  *  -4.81499800  *   4.37038000  *
    65       H          4.57623200  *  -5.00555800  *   5.50431200  *
    66       O          7.88548400  *  -6.22719400  *   5.63015200  *
    67       H          8.16849400  *  -5.39273100  *   5.28204500  *
    68       H          7.27130100  *  -5.93235700  *   6.44790300  *
    69       H          2.76045100  *   1.11611400  *   0.25452800  *
    70       H          6.82648900  *   0.53714100  *   0.34531300  *
 


          CARTESIAN COORDINATES 

    NO.       ATOM           X           Y           Z

     1         C          3.5653      0.5218      0.6871
     2         O          3.2690     -0.2602      1.6063
     3         N          4.7478      0.6728      0.1095
     4         H          5.0007      1.4287     -0.5546
     5         C          5.9468     -0.0695      0.5603
     6         H          5.9489     -0.2640      1.5953
     7         C          6.1587     -1.4314     -0.2443
     8         H          5.2185     -1.7883     -0.7643
     9         H          6.8475     -1.4615     -1.1226
    10         C          6.5698     -2.4974      0.7266
    11         C          5.6031     -3.2187      1.4397
    12         H          4.5435     -3.0327      1.3309
    13         C          5.9710     -4.2566      2.3250
    14         H          5.2263     -4.8511      2.8953
    15         C          7.2938     -4.5327      2.4928
    16         H          7.6223     -5.3442      3.1731
    17         C          7.9790     -2.8345      0.8758
    18         H          8.7671     -2.2539      0.5498
    19         C          8.2913     -3.7732      1.8588
    20         H          9.3365     -4.0476      2.0590
    21         O          6.3418      3.6752     -1.9664
    22         H          5.5439      3.8135     -1.4621
    23         H          7.0900      3.7052     -1.3735
    24         O          3.3982     -2.6625      3.4055
    25         H          2.4178     -2.5233      3.7415
    26         H          3.5847     -1.8701      2.8729
    27         O         11.4843     -2.1921      0.2291
    28         H         12.3093     -2.1075     -0.1845
    29         H         11.1778     -1.3412      0.8174
    30         O          9.3921     -1.3296      3.4450
    31         H          9.7892     -2.1442      3.3658
    32         H          9.8118     -0.7950      2.7105
    33         O         11.0607     -4.6390      0.8652
    34         H         11.2874     -3.7825      0.4812
    35         H         10.4745     -5.0339      0.1267
    36         O          9.7431     -3.0944     -1.5967
    37         H         10.4765     -2.8515     -0.9499
    38         H          9.2441     -2.2740     -1.6404
    39         O          4.6143     -0.6675     -3.3119
    40         H          4.8853      0.1319     -2.9043
    41         H          3.7953     -0.4175     -3.7189
    42         O          6.7018     -6.0727     -0.0563
    43         H          7.5972     -6.0972     -0.4982
    44         H          6.9159     -5.2073      0.3917
    45         O          7.0086     -0.2318      3.8352
    46         H          7.9246     -0.6256      3.7318
    47         H          6.4392     -0.9036      4.1889
    48         O          4.1144      0.9301      4.2371
    49         H          4.4069      1.8534      3.9998
    50         H          4.6761      0.4742      3.7330
    51         O          6.3394     -2.7502     -3.3351
    52         H          7.2461     -2.3515     -3.5650
    53         H          5.7374     -2.0582     -3.1674
    54         O          4.6515      1.8886     -2.8519
    55         H          5.4837      2.4186     -2.8050
    56         H          4.0197      2.5503     -2.3609
    57         O          1.9886     -0.3902      3.7839
    58         H          2.4827     -0.3446      2.9525
    59         H          2.6462      0.0776      4.3698
    60         O         10.9831     -3.4896      3.2765
    61         H         11.5930     -2.8194      3.6680
    62         H         11.3826     -3.7611      2.3958
    63         O          3.9155     -5.5093      4.9364
    64         H          3.6152     -4.8150      4.3704
    65         H          4.5762     -5.0056      5.5043
    66         O          7.8855     -6.2272      5.6302
    67         H          8.1685     -5.3927      5.2820
    68         H          7.2713     -5.9324      6.4479
    69         H          2.7605      1.1161      0.2545
    70         H          6.8265      0.5371      0.3453

 General Reference for PM7:
 "Optimization of Parameters for Semiempirical Methods VI: More Modifications to the 
 NDDO Approximations and Re-optimization of Parameters", J. J. P. Stewart, J. Mol. Mod., 1:32, 19 (2013)
 http://www.springerlink.com/openurl.asp?genre=article&id=doi:10.1007/s00894-012-1667-x

           Empirical Formula: C9 H43 N O17  =    70 atoms



      MOLECULAR POINT GROUP   :   C1  


      RHF CALCULATION, NO. OF DOUBLY OCCUPIED LEVELS = 93


 -------------------------------------------------------------------------------
 PM7 XYZ T=2M 1SCF LOCALIZE AIGOUT GRAPH GRAPHF LARGE DIPOLE PI FORCE CUTOFF=9.0 AUX LET GRAD QMMM GEO-OK EIGEN VECTORS CHARGE=0
 Test System



     1SCF WAS SPECIFIED, SO BFGS WAS NOT USED                 
     SCF FIELD WAS ACHIEVED                                   


                              PM7 CALCULATION
                                                       MOPAC2016 (Version: 20.070L)
                                                       Thu Apr 23 14:14:16 2020
                                                       No. of days remaining = 322




          FINAL HEAT OF FORMATION =      -1268.21824 KCAL/MOL =   -5306.22513 KJ/MOL


          TOTAL ENERGY            =      -6909.13805 EV
          ELECTRONIC ENERGY       =     -55693.81522 EV  POINT GROUP:     C1  
          CORE-CORE REPULSION     =      48784.67717 EV
          COSMO AREA              =        483.49 SQUARE ANGSTROMS
          COSMO VOLUME            =        625.67 CUBIC ANGSTROMS

          GRADIENT NORM           =        299.96046 = 35.85213 PER ATOM
          IONIZATION POTENTIAL    =          9.473732 EV
          HOMO LUMO ENERGIES (EV) =         -9.474  0.163
          NO. OF FILLED LEVELS    =         93
          MOLECULAR WEIGHT        =        437.4352

          MOLECULAR DIMENSIONS (Angstroms)

            Atom       Atom       Distance
            H    68    O    21    12.80503
            O    57    H    28    11.17543
            H    49    O    51     7.20300


          SCF CALCULATIONS        =          1
 
          WALL-CLOCK TIME         =          0.184 SECONDS
          COMPUTATION TIME        =          0.179 SECONDS

          LARGEST ATOMIC GRADIENTS

          Atom     Label                     Cartesian Gradients           Cartesian Coordinates       |Gradient|
                                           X          Y          Z        X          Y          Z

            17       C                  66.493     -2.739    -54.951    7.97899   -2.83453    0.87585     86.304
            66       O                  37.428    -24.100    -52.013    7.88548   -6.22719    5.63015     68.462
             3       N                 -63.660      3.722      3.850    4.74781    0.67279    0.10945     63.885
            27       O                  28.549    -49.304    -28.708   11.48426   -2.19206    0.22913     63.797
             5       C                  -1.671     24.002     56.321    5.94676   -0.06945    0.56030     61.245
            29       H                 -22.472     46.458     32.825   11.17780   -1.34117    0.81735     61.162
            48       O                   4.332    -57.363    -19.486    4.11443    0.93008    4.23714     60.737
            50       H                 -31.360     42.682     28.479    4.67606    0.47418    3.73304     60.135
            54       O                  12.685    -44.905    -36.813    4.65149    1.88857   -2.85192     59.436
            68       H                 -32.155     23.715     43.665    7.27130   -5.93236    6.44790     59.186
             1       C                  49.768     12.563    -20.272    3.56532    0.52181    0.68707     55.187
             2       O                 -39.503    -12.838     34.468    3.26895   -0.26017    1.60628     53.976
            30       O                 -17.293    -41.529     25.214    9.39213   -1.32957    3.44504     51.570
            42       O                 -43.412    -24.862      3.876    6.70179   -6.07274   -0.05631     50.177
            56       H                 -13.577     30.867     28.174    4.01966    2.55029   -2.36091     43.942



       FINAL  POINT  AND  DERIVATIVES

   PARAMETER     ATOM    TYPE            VALUE        GRADIENT
      1          1  C    CARTESIAN X     3.565320     49.767860  KCAL/ANGSTROM
      2          1  C    CARTESIAN Y     0.521814     12.563328  KCAL/ANGSTROM
      3          1  C    CARTESIAN Z     0.687072    -20.271541  KCAL/ANGSTROM
      4          2  O    CARTESIAN X     3.268952    -39.503317  KCAL/ANGSTROM
      5          2  O    CARTESIAN Y    -0.260170    -12.838266  KCAL/ANGSTROM
      6          2  O    CARTESIAN Z     1.606275     34.467825  KCAL/ANGSTROM
      7          3  N    CARTESIAN X     4.747808    -63.660265  KCAL/ANGSTROM
      8          3  N    CARTESIAN Y     0.672794      3.721599  KCAL/ANGSTROM
      9          3  N    CARTESIAN Z     0.109453      3.849723  KCAL/ANGSTROM
     10          4  H    CARTESIAN X     5.000713     15.967061  KCAL/ANGSTROM
     11          4  H    CARTESIAN Y     1.428655     13.584016  KCAL/ANGSTROM
     12          4  H    CARTESIAN Z    -0.554554     -0.692183  KCAL/ANGSTROM
     13          5  C    CARTESIAN X     5.946757     -1.670556  KCAL/ANGSTROM
     14          5  C    CARTESIAN Y    -0.069453     24.002125  KCAL/ANGSTROM
     15          5  C    CARTESIAN Z     0.560295     56.320928  KCAL/ANGSTROM
     16          6  H    CARTESIAN X     5.948850      7.098226  KCAL/ANGSTROM
     17          6  H    CARTESIAN Y    -0.263982      8.556853  KCAL/ANGSTROM
     18          6  H    CARTESIAN Z     1.595330    -32.950443  KCAL/ANGSTROM
     19          7  C    CARTESIAN X     6.158659     15.394434  KCAL/ANGSTROM
     20          7  C    CARTESIAN Y    -1.431437      6.407539  KCAL/ANGSTROM
     21          7  C    CARTESIAN Z    -0.244276     -7.734533  KCAL/ANGSTROM
     22          8  H    CARTESIAN X     5.218530     -3.141190  KCAL/ANGSTROM
     23          8  H    CARTESIAN Y    -1.788301    -11.106535  KCAL/ANGSTROM
     24          8  H    CARTESIAN Z    -0.764334     -8.845832  KCAL/ANGSTROM
     25          9  H    CARTESIAN X     6.847527      2.043906  KCAL/ANGSTROM
     26          9  H    CARTESIAN Y    -1.461490    -15.996624  KCAL/ANGSTROM
     27          9  H    CARTESIAN Z    -1.122565     -9.969015  KCAL/ANGSTROM
     28         10  C    CARTESIAN X     6.569781    -31.457348  KCAL/ANGSTROM
     29         10  C    CARTESIAN Y    -2.497406     22.677765  KCAL/ANGSTROM
     30         10  C    CARTESIAN Z     0.726588     -3.606356  KCAL/ANGSTROM
     31         11  C    CARTESIAN X     5.603098    -17.944480  KCAL/ANGSTROM
     32         11  C    CARTESIAN Y    -3.218729      2.288431  KCAL/ANGSTROM
     33         11  C    CARTESIAN Z     1.439651      1.362273  KCAL/ANGSTROM
     34         12  H    CARTESIAN X     4.543461      3.693222  KCAL/ANGSTROM
     35         12  H    CARTESIAN Y    -3.032714     -5.494154  KCAL/ANGSTROM
     36         12  H    CARTESIAN Z     1.330855      3.686256  KCAL/ANGSTROM
     37         13  C    CARTESIAN X     5.970953     24.970976  KCAL/ANGSTROM
     38         13  C    CARTESIAN Y    -4.256565    -11.089856  KCAL/ANGSTROM
     39         13  C    CARTESIAN Z     2.325010      4.652543  KCAL/ANGSTROM
     40         14  H    CARTESIAN X     5.226250     -0.394634  KCAL/ANGSTROM
     41         14  H    CARTESIAN Y    -4.851052     -8.555767  KCAL/ANGSTROM
     42         14  H    CARTESIAN Z     2.895264     10.358937  KCAL/ANGSTROM
     43         15  C    CARTESIAN X     7.293806    -38.397887  KCAL/ANGSTROM
     44         15  C    CARTESIAN Y    -4.532747      5.279437  KCAL/ANGSTROM
     45         15  C    CARTESIAN Z     2.492794    -19.775266  KCAL/ANGSTROM
     46         16  H    CARTESIAN X     7.622303      4.708235  KCAL/ANGSTROM
     47         16  H    CARTESIAN Y    -5.344187     -4.862249  KCAL/ANGSTROM
     48         16  H    CARTESIAN Z     3.173097      5.334333  KCAL/ANGSTROM
     49         17  C    CARTESIAN X     7.978986     66.492768  KCAL/ANGSTROM
     50         17  C    CARTESIAN Y    -2.834527     -2.738838  KCAL/ANGSTROM
     51         17  C    CARTESIAN Z     0.875847    -54.951319  KCAL/ANGSTROM
     52         18  H    CARTESIAN X     8.767133    -14.122672  KCAL/ANGSTROM
     53         18  H    CARTESIAN Y    -2.253920    -17.443900  KCAL/ANGSTROM
     54         18  H    CARTESIAN Z     0.549766     28.668292  KCAL/ANGSTROM
     55         19  C    CARTESIAN X     8.291310      4.001660  KCAL/ANGSTROM
     56         19  C    CARTESIAN Y    -3.773246     14.819469  KCAL/ANGSTROM
     57         19  C    CARTESIAN Z     1.858814     22.337268  KCAL/ANGSTROM
     58         20  H    CARTESIAN X     9.336505      4.327742  KCAL/ANGSTROM
     59         20  H    CARTESIAN Y    -4.047623     -2.388345  KCAL/ANGSTROM
     60         20  H    CARTESIAN Z     2.058958     -2.109443  KCAL/ANGSTROM
     61         21  O    CARTESIAN X     6.341788     -1.287027  KCAL/ANGSTROM
     62         21  O    CARTESIAN Y     3.675197      4.733981  KCAL/ANGSTROM
     63         21  O    CARTESIAN Z    -1.966352     -8.269550  KCAL/ANGSTROM
     64         22  H    CARTESIAN X     5.543914      0.931678  KCAL/ANGSTROM
     65         22  H    CARTESIAN Y     3.813477    -12.315337  KCAL/ANGSTROM
     66         22  H    CARTESIAN Z    -1.462065     -4.080673  KCAL/ANGSTROM
     67         23  H    CARTESIAN X     7.089983     -3.085976  KCAL/ANGSTROM
     68         23  H    CARTESIAN Y     3.705167     -1.244854  KCAL/ANGSTROM
     69         23  H    CARTESIAN Z    -1.373517      4.801987  KCAL/ANGSTROM
     70         24  O    CARTESIAN X     3.398242     32.232335  KCAL/ANGSTROM
     71         24  O    CARTESIAN Y    -2.662504     -8.459627  KCAL/ANGSTROM
     72         24  O    CARTESIAN Z     3.405452    -16.778923  KCAL/ANGSTROM
     73         25  H    CARTESIAN X     2.417786    -39.950469  KCAL/ANGSTROM
     74         25  H    CARTESIAN Y    -2.523251     -1.933435  KCAL/ANGSTROM
     75         25  H    CARTESIAN Z     3.741461     15.735651  KCAL/ANGSTROM
     76         26  H    CARTESIAN X     3.584664      5.828332  KCAL/ANGSTROM
     77         26  H    CARTESIAN Y    -1.870097     11.410178  KCAL/ANGSTROM
     78         26  H    CARTESIAN Z     2.872926     -2.450968  KCAL/ANGSTROM
     79         27  O    CARTESIAN X    11.484260     28.549236  KCAL/ANGSTROM
     80         27  O    CARTESIAN Y    -2.192057    -49.303848  KCAL/ANGSTROM
     81         27  O    CARTESIAN Z     0.229130    -28.708027  KCAL/ANGSTROM
     82         28  H    CARTESIAN X    12.309338    -14.598109  KCAL/ANGSTROM
     83         28  H    CARTESIAN Y    -2.107469     -8.080314  KCAL/ANGSTROM
     84         28  H    CARTESIAN Z    -0.184483      3.683638  KCAL/ANGSTROM
     85         29  H    CARTESIAN X    11.177805    -22.471537  KCAL/ANGSTROM
     86         29  H    CARTESIAN Y    -1.341170     46.458396  KCAL/ANGSTROM
     87         29  H    CARTESIAN Z     0.817354     32.824701  KCAL/ANGSTROM
     88         30  O    CARTESIAN X     9.392127    -17.293381  KCAL/ANGSTROM
     89         30  O    CARTESIAN Y    -1.329567    -41.528574  KCAL/ANGSTROM
     90         30  O    CARTESIAN Z     3.445042     25.214107  KCAL/ANGSTROM
     91         31  H    CARTESIAN X     9.789247     -1.850555  KCAL/ANGSTROM
     92         31  H    CARTESIAN Y    -2.144249     37.081116  KCAL/ANGSTROM
     93         31  H    CARTESIAN Z     3.365840     -5.531490  KCAL/ANGSTROM
     94         32  H    CARTESIAN X     9.811780     16.091199  KCAL/ANGSTROM
     95         32  H    CARTESIAN Y    -0.794976      6.723329  KCAL/ANGSTROM
     96         32  H    CARTESIAN Z     2.710466    -20.723452  KCAL/ANGSTROM
     97         33  O    CARTESIAN X    11.060736     11.313107  KCAL/ANGSTROM
     98         33  O    CARTESIAN Y    -4.638950     14.786864  KCAL/ANGSTROM
     99         33  O    CARTESIAN Z     0.865159     38.517394  KCAL/ANGSTROM
    100         34  H    CARTESIAN X    11.287443     -1.196849  KCAL/ANGSTROM
    101         34  H    CARTESIAN Y    -3.782487     -0.150876  KCAL/ANGSTROM
    102         34  H    CARTESIAN Z     0.481207     -6.891571  KCAL/ANGSTROM
    103         35  H    CARTESIAN X    10.474460    -12.901337  KCAL/ANGSTROM
    104         35  H    CARTESIAN Y    -5.033898     -5.201234  KCAL/ANGSTROM
    105         35  H    CARTESIAN Z     0.126708    -27.787495  KCAL/ANGSTROM
    106         36  O    CARTESIAN X     9.743078    -20.396947  KCAL/ANGSTROM
    107         36  O    CARTESIAN Y    -3.094397    -17.979945  KCAL/ANGSTROM
    108         36  O    CARTESIAN Z    -1.596748    -17.733740  KCAL/ANGSTROM
    109         37  H    CARTESIAN X    10.476505     16.760935  KCAL/ANGSTROM
    110         37  H    CARTESIAN Y    -2.851501      8.596875  KCAL/ANGSTROM
    111         37  H    CARTESIAN Z    -0.949922     13.511645  KCAL/ANGSTROM
    112         38  H    CARTESIAN X     9.244059      5.173891  KCAL/ANGSTROM
    113         38  H    CARTESIAN Y    -2.274002      9.709874  KCAL/ANGSTROM
    114         38  H    CARTESIAN Z    -1.640390      5.782837  KCAL/ANGSTROM
    115         39  O    CARTESIAN X     4.614263     -1.636069  KCAL/ANGSTROM
    116         39  O    CARTESIAN Y    -0.667506     13.054076  KCAL/ANGSTROM
    117         39  O    CARTESIAN Z    -3.311937     -6.665203  KCAL/ANGSTROM
    118         40  H    CARTESIAN X     4.885265     -7.425447  KCAL/ANGSTROM
    119         40  H    CARTESIAN Y     0.131932    -13.090582  KCAL/ANGSTROM
    120         40  H    CARTESIAN Z    -2.904287     -5.159218  KCAL/ANGSTROM
    121         41  H    CARTESIAN X     3.795291      5.831832  KCAL/ANGSTROM
    122         41  H    CARTESIAN Y    -0.417517      8.034008  KCAL/ANGSTROM
    123         41  H    CARTESIAN Z    -3.718928     10.533255  KCAL/ANGSTROM
    124         42  O    CARTESIAN X     6.701787    -43.412021  KCAL/ANGSTROM
    125         42  O    CARTESIAN Y    -6.072737    -24.862217  KCAL/ANGSTROM
    126         42  O    CARTESIAN Z    -0.056306      3.875824  KCAL/ANGSTROM
    127         43  H    CARTESIAN X     7.597198     20.600957  KCAL/ANGSTROM
    128         43  H    CARTESIAN Y    -6.097226     16.268143  KCAL/ANGSTROM
    129         43  H    CARTESIAN Z    -0.498208      2.853783  KCAL/ANGSTROM
    130         44  H    CARTESIAN X     6.915852     24.453580  KCAL/ANGSTROM
    131         44  H    CARTESIAN Y    -5.207287     12.666381  KCAL/ANGSTROM
    132         44  H    CARTESIAN Z     0.391749      0.094185  KCAL/ANGSTROM
    133         45  O    CARTESIAN X     7.008586    -14.548427  KCAL/ANGSTROM
    134         45  O    CARTESIAN Y    -0.231823     -0.631235  KCAL/ANGSTROM
    135         45  O    CARTESIAN Z     3.835212      6.355844  KCAL/ANGSTROM
    136         46  H    CARTESIAN X     7.924598     24.494451  KCAL/ANGSTROM
    137         46  H    CARTESIAN Y    -0.625646     -4.929329  KCAL/ANGSTROM
    138         46  H    CARTESIAN Z     3.731790     -2.719546  KCAL/ANGSTROM
    139         47  H    CARTESIAN X     6.439215      0.288349  KCAL/ANGSTROM
    140         47  H    CARTESIAN Y    -0.903625      5.683076  KCAL/ANGSTROM
    141         47  H    CARTESIAN Z     4.188945     -2.556419  KCAL/ANGSTROM
    142         48  O    CARTESIAN X     4.114433      4.332084  KCAL/ANGSTROM
    143         48  O    CARTESIAN Y     0.930076    -57.362600  KCAL/ANGSTROM
    144         48  O    CARTESIAN Z     4.237141    -19.485661  KCAL/ANGSTROM
    145         49  H    CARTESIAN X     4.406866     15.387680  KCAL/ANGSTROM
    146         49  H    CARTESIAN Y     1.853426      9.918204  KCAL/ANGSTROM
    147         49  H    CARTESIAN Z     3.999751    -13.489305  KCAL/ANGSTROM
    148         50  H    CARTESIAN X     4.676064    -31.359846  KCAL/ANGSTROM
    149         50  H    CARTESIAN Y     0.474184     42.682091  KCAL/ANGSTROM
    150         50  H    CARTESIAN Z     3.733038     28.478729  KCAL/ANGSTROM
    151         51  O    CARTESIAN X     6.339388    -41.686929  KCAL/ANGSTROM
    152         51  O    CARTESIAN Y    -2.750244    -12.583420  KCAL/ANGSTROM
    153         51  O    CARTESIAN Z    -3.335067      5.217724  KCAL/ANGSTROM
    154         52  H    CARTESIAN X     7.246057     37.308800  KCAL/ANGSTROM
    155         52  H    CARTESIAN Y    -2.351460     16.829678  KCAL/ANGSTROM
    156         52  H    CARTESIAN Z    -3.565036     -7.004257  KCAL/ANGSTROM
    157         53  H    CARTESIAN X     5.737378      8.430135  KCAL/ANGSTROM
    158         53  H    CARTESIAN Y    -2.058228     -6.704318  KCAL/ANGSTROM
    159         53  H    CARTESIAN Z    -3.167382      5.704414  KCAL/ANGSTROM
    160         54  O    CARTESIAN X     4.651493     12.684709  KCAL/ANGSTROM
    161         54  O    CARTESIAN Y     1.888569    -44.905438  KCAL/ANGSTROM
    162         54  O    CARTESIAN Z    -2.851924    -36.813449  KCAL/ANGSTROM
    163         55  H    CARTESIAN X     5.483745      3.769072  KCAL/ANGSTROM
    164         55  H    CARTESIAN Y     2.418568     12.444403  KCAL/ANGSTROM
    165         55  H    CARTESIAN Z    -2.805008     10.728550  KCAL/ANGSTROM
    166         56  H    CARTESIAN X     4.019656    -13.577004  KCAL/ANGSTROM
    167         56  H    CARTESIAN Y     2.550290     30.866655  KCAL/ANGSTROM
    168         56  H    CARTESIAN Z    -2.360909     28.174122  KCAL/ANGSTROM
    169         57  O    CARTESIAN X     1.988571     -6.457368  KCAL/ANGSTROM
    170         57  O    CARTESIAN Y    -0.390224     -2.633459  KCAL/ANGSTROM
    171         57  O    CARTESIAN Z     3.783877    -21.144446  KCAL/ANGSTROM
    172         58  H    CARTESIAN X     2.482704     15.325269  KCAL/ANGSTROM
    173         58  H    CARTESIAN Y    -0.344645      0.222659  KCAL/ANGSTROM
    174         58  H    CARTESIAN Z     2.952481      5.271301  KCAL/ANGSTROM
    175         59  H    CARTESIAN X     2.646159     16.713036  KCAL/ANGSTROM
    176         59  H    CARTESIAN Y     0.077592      6.766827  KCAL/ANGSTROM
    177         59  H    CARTESIAN Z     4.369794      4.518236  KCAL/ANGSTROM
    178         60  O    CARTESIAN X    10.983147    -24.324549  KCAL/ANGSTROM
    179         60  O    CARTESIAN Y    -3.489577    -29.224653  KCAL/ANGSTROM
    180         60  O    CARTESIAN Z     3.276500      5.527361  KCAL/ANGSTROM
    181         61  H    CARTESIAN X    11.593023      8.239973  KCAL/ANGSTROM
    182         61  H    CARTESIAN Y    -2.819417     21.106382  KCAL/ANGSTROM
    183         61  H    CARTESIAN Z     3.667950      3.706064  KCAL/ANGSTROM
    184         62  H    CARTESIAN X    11.382629     15.682221  KCAL/ANGSTROM
    185         62  H    CARTESIAN Y    -3.761096      6.499659  KCAL/ANGSTROM
    186         62  H    CARTESIAN Z     2.395799    -20.722825  KCAL/ANGSTROM
    187         63  O    CARTESIAN X     3.915546    -22.792193  KCAL/ANGSTROM
    188         63  O    CARTESIAN Y    -5.509330    -18.080604  KCAL/ANGSTROM
    189         63  O    CARTESIAN Z     4.936419    -22.709575  KCAL/ANGSTROM
    190         64  H    CARTESIAN X     3.615198      9.207621  KCAL/ANGSTROM
    191         64  H    CARTESIAN Y    -4.814998     -3.906651  KCAL/ANGSTROM
    192         64  H    CARTESIAN Z     4.370380     13.147944  KCAL/ANGSTROM
    193         65  H    CARTESIAN X     4.576232     15.062746  KCAL/ANGSTROM
    194         65  H    CARTESIAN Y    -5.005558     19.098436  KCAL/ANGSTROM
    195         65  H    CARTESIAN Z     5.504312     12.374097  KCAL/ANGSTROM
    196         66  O    CARTESIAN X     7.885484     37.427834  KCAL/ANGSTROM
    197         66  O    CARTESIAN Y    -6.227194    -24.100303  KCAL/ANGSTROM
    198         66  O    CARTESIAN Z     5.630152    -52.012961  KCAL/ANGSTROM
    199         67  H    CARTESIAN X     8.168494     -7.346293  KCAL/ANGSTROM
    200         67  H    CARTESIAN Y    -5.392731     -0.069608  KCAL/ANGSTROM
    201         67  H    CARTESIAN Z     5.282045      8.751307  KCAL/ANGSTROM
    202         68  H    CARTESIAN X     7.271301    -32.154729  KCAL/ANGSTROM
    203         68  H    CARTESIAN Y    -5.932357     23.714784  KCAL/ANGSTROM
    204         68  H    CARTESIAN Z     6.447903     43.665003  KCAL/ANGSTROM
    205         69  H    CARTESIAN X     2.760451     15.600763  KCAL/ANGSTROM
    206         69  H    CARTESIAN Y     1.116114     -7.111803  KCAL/ANGSTROM
    207         69  H    CARTESIAN Z     0.254528      0.401947  KCAL/ANGSTROM
    208         70  H    CARTESIAN X     6.826489    -14.136782  KCAL/ANGSTROM
    209         70  H    CARTESIAN Y     0.537141    -10.341239  KCAL/ANGSTROM
    210         70  H    CARTESIAN Z     0.345313     -0.139323  KCAL/ANGSTROM




   ATOM   CHEMICAL          X               Y               Z
  NUMBER   SYMBOL      (ANGSTROMS)     (ANGSTROMS)     (ANGSTROMS)
 
     1       C          3.56532000  *   0.52181400  *   0.68707200  *
     2       O          3.26895200  *  -0.26017000  *   1.60627500  *
     3       N          4.74780800  *   0.67279400  *   0.10945300  *
     4       H          5.00071300  *   1.42865500  *  -0.55455400  *
     5       C          5.94675700  *  -0.06945300  *   0.56029500  *
     6       H          5.94885000  *  -0.26398200  *   1.59533000  *
     7       C          6.15865900  *  -1.43143700  *  -0.24427600  *
     8       H          5.21853000  *  -1.78830100  *  -0.76433400  *
     9       H          6.84752700  *  -1.46149000  *  -1.12256500  *
    10       C          6.56978100  *  -2.49740600  *   0.72658800  *
    11       C          5.60309800  *  -3.21872900  *   1.43965100  *
    12       H          4.54346100  *  -3.03271400  *   1.33085500  *
    13       C          5.97095300  *  -4.25656500  *   2.32501000  *
    14       H          5.22625000  *  -4.85105200  *   2.89526400  *
    15       C          7.29380600  *  -4.53274700  *   2.49279400  *
    16       H          7.62230300  *  -5.34418700  *   3.17309700  *
    17       C          7.97898600  *  -2.83452700  *   0.87584700  *
    18       H          8.76713300  *  -2.25392000  *   0.54976600  *
    19       C          8.29131000  *  -3.77324600  *   1.85881400  *
    20       H          9.33650500  *  -4.04762300  *   2.05895800  *
    21       O          6.34178800  *   3.67519700  *  -1.96635200  *
    22       H          5.54391400  *   3.81347700  *  -1.46206500  *
    23       H          7.08998300  *   3.70516700  *  -1.37351700  *
    24       O          3.39824200  *  -2.66250400  *   3.40545200  *
    25       H          2.41778600  *  -2.52325100  *   3.74146100  *
    26       H          3.58466400  *  -1.87009700  *   2.87292600  *
    27       O         11.48426000  *  -2.19205700  *   0.22913000  *
    28       H         12.30933800  *  -2.10746900  *  -0.18448300  *
    29       H         11.17780500  *  -1.34117000  *   0.81735400  *
    30       O          9.39212700  *  -1.32956700  *   3.44504200  *
    31       H          9.78924700  *  -2.14424900  *   3.36584000  *
    32       H          9.81178000  *  -0.79497600  *   2.71046600  *
    33       O         11.06073600  *  -4.63895000  *   0.86515900  *
    34       H         11.28744300  *  -3.78248700  *   0.48120700  *
    35       H         10.47446000  *  -5.03389800  *   0.12670800  *
    36       O          9.74307800  *  -3.09439700  *  -1.59674800  *
    37       H         10.47650500  *  -2.85150100  *  -0.94992200  *
    38       H          9.24405900  *  -2.27400200  *  -1.64039000  *
    39       O          4.61426300  *  -0.66750600  *  -3.31193700  *
    40       H          4.88526500  *   0.13193200  *  -2.90428700  *
    41       H          3.79529100  *  -0.41751700  *  -3.71892800  *
    42       O          6.70178700  *  -6.07273700  *  -0.05630600  *
    43       H          7.59719800  *  -6.09722600  *  -0.49820800  *
    44       H          6.91585200  *  -5.20728700  *   0.39174900  *
    45       O          7.00858600  *  -0.23182300  *   3.83521200  *
    46       H          7.92459800  *  -0.62564600  *   3.73179000  *
    47       H          6.43921500  *  -0.90362500  *   4.18894500  *
    48       O          4.11443300  *   0.93007600  *   4.23714100  *
    49       H          4.40686600  *   1.85342600  *   3.99975100  *
    50       H          4.67606400  *   0.47418400  *   3.73303800  *
    51       O          6.33938800  *  -2.75024400  *  -3.33506700  *
    52       H          7.24605700  *  -2.35146000  *  -3.56503600  *
    53       H          5.73737800  *  -2.05822800  *  -3.16738200  *
    54       O          4.65149300  *   1.88856900  *  -2.85192400  *
    55       H          5.48374500  *   2.41856800  *  -2.80500800  *
    56       H          4.01965600  *   2.55029000  *  -2.36090900  *
    57       O          1.98857100  *  -0.39022400  *   3.78387700  *
    58       H          2.48270400  *  -0.34464500  *   2.95248100  *
    59       H          2.64615900  *   0.07759200  *   4.36979400  *
    60       O         10.98314700  *  -3.48957700  *   3.27650000  *
    61       H         11.59302300  *  -2.81941700  *   3.66795000  *
    62       H         11.38262900  *  -3.76109600  *   2.39579900  *
    63       O          3.91554600  *  -5.50933000  *   4.93641900  *
    64       H          3.61519800  *  -4.81499800  *   4.37038000  *
    65       H          4.57623200  *  -5.00555800  *   5.50431200  *
    66       O          7.88548400  *  -6.22719400  *   5.63015200  *
    67       H          8.16849400  *  -5.39273100  *   5.28204500  *
    68       H          7.27130100  *  -5.93235700  *   6.44790300  *
    69       H          2.76045100  *   1.11611400  *   0.25452800  *
    70       H          6.82648900  *   0.53714100  *   0.34531300  *

                             CARTESIAN COORDINATES

   1    C        3.565320000     0.521814000     0.687072000
   2    O        3.268952000    -0.260170000     1.606275000
   3    N        4.747808000     0.672794000     0.109453000
   4    H        5.000713000     1.428655000    -0.554554000
   5    C        5.946757000    -0.069453000     0.560295000
   6    H        5.948850000    -0.263982000     1.595330000
   7    C        6.158659000    -1.431437000    -0.244276000
   8    H        5.218530000    -1.788301000    -0.764334000
   9    H        6.847527000    -1.461490000    -1.122565000
  10    C        6.569781000    -2.497406000     0.726588000
  11    C        5.603098000    -3.218729000     1.439651000
  12    H        4.543461000    -3.032714000     1.330855000
  13    C        5.970953000    -4.256565000     2.325010000
  14    H        5.226250000    -4.851052000     2.895264000
  15    C        7.293806000    -4.532747000     2.492794000
  16    H        7.622303000    -5.344187000     3.173097000
  17    C        7.978986000    -2.834527000     0.875847000
  18    H        8.767133000    -2.253920000     0.549766000
  19    C        8.291310000    -3.773246000     1.858814000
  20    H        9.336505000    -4.047623000     2.058958000
  21    O        6.341788000     3.675197000    -1.966352000
  22    H        5.543914000     3.813477000    -1.462065000
  23    H        7.089983000     3.705167000    -1.373517000
  24    O        3.398242000    -2.662504000     3.405452000
  25    H        2.417786000    -2.523251000     3.741461000
  26    H        3.584664000    -1.870097000     2.872926000
  27    O       11.484260000    -2.192057000     0.229130000
  28    H       12.309338000    -2.107469000    -0.184483000
  29    H       11.177805000    -1.341170000     0.817354000
  30    O        9.392127000    -1.329567000     3.445042000
  31    H        9.789247000    -2.144249000     3.365840000
  32    H        9.811780000    -0.794976000     2.710466000
  33    O       11.060736000    -4.638950000     0.865159000
  34    H       11.287443000    -3.782487000     0.481207000
  35    H       10.474460000    -5.033898000     0.126708000
  36    O        9.743078000    -3.094397000    -1.596748000
  37    H       10.476505000    -2.851501000    -0.949922000
  38    H        9.244059000    -2.274002000    -1.640390000
  39    O        4.614263000    -0.667506000    -3.311937000
  40    H        4.885265000     0.131932000    -2.904287000
  41    H        3.795291000    -0.417517000    -3.718928000
  42    O        6.701787000    -6.072737000    -0.056306000
  43    H        7.597198000    -6.097226000    -0.498208000
  44    H        6.915852000    -5.207287000     0.391749000
  45    O        7.008586000    -0.231823000     3.835212000
  46    H        7.924598000    -0.625646000     3.731790000
  47    H        6.439215000    -0.903625000     4.188945000
  48    O        4.114433000     0.930076000     4.237141000
  49    H        4.406866000     1.853426000     3.999751000
  50    H        4.676064000     0.474184000     3.733038000
  51    O        6.339388000    -2.750244000    -3.335067000
  52    H        7.246057000    -2.351460000    -3.565036000
  53    H        5.737378000    -2.058228000    -3.167382000
  54    O        4.651493000     1.888569000    -2.851924000
  55    H        5.483745000     2.418568000    -2.805008000
  56    H        4.019656000     2.550290000    -2.360909000
  57    O        1.988571000    -0.390224000     3.783877000
  58    H        2.482704000    -0.344645000     2.952481000
  59    H        2.646159000     0.077592000     4.369794000
  60    O       10.983147000    -3.489577000     3.276500000
  61    H       11.593023000    -2.819417000     3.667950000
  62    H       11.382629000    -3.761096000     2.395799000
  63    O        3.915546000    -5.509330000     4.936419000
  64    H        3.615198000    -4.814998000     4.370380000
  65    H        4.576232000    -5.005558000     5.504312000
  66    O        7.885484000    -6.227194000     5.630152000
  67    H        8.168494000    -5.392731000     5.282045000
  68    H        7.271301000    -5.932357000     6.447903000
  69    H        2.760451000     1.116114000     0.254528000
  70    H        6.826489000     0.537141000     0.345313000


           Empirical Formula: C9 H43 N O17  =    70 atoms



      MOLECULAR POINT GROUP   :   C1  


                EIGENVECTORS  


   Root No.      85        86        87        88        89        90        91        92

                85 A      86 A      87 A      88 A      89 A      90 A      91 A      92 A   

               -11.940   -11.652   -11.624   -11.514   -11.353   -11.119   -10.571    -9.755
  
  S   C    1   -0.0001   -0.0089   -0.0341    0.0165    0.0175    0.0893    0.0127   -0.0004
  Px  C    1    0.0083    0.0102   -0.0185   -0.0180   -0.0090   -0.1356    0.0428   -0.0032
  Py  C    1   -0.0084   -0.0093   -0.0201    0.0171    0.0157    0.0985    0.0983    0.0010
  Pz  C    1    0.0096    0.0014    0.0244   -0.0117   -0.0121   -0.0694    0.0804   -0.0005
  S   O    2   -0.0096    0.0019   -0.0121    0.0021    0.0043    0.0177    0.0068    0.0003
  Px  O    2   -0.0098   -0.1209   -0.1009    0.1740    0.1077    0.7182   -0.1333    0.0075
  Py  O    2    0.0183   -0.0066    0.1025   -0.0161   -0.0514   -0.3314   -0.3710   -0.0031
  Pz  O    2   -0.0096   -0.0433    0.0087    0.0578    0.0145    0.0913   -0.3303    0.0009
  S   N    3    0.0008    0.0229    0.0303   -0.0301   -0.0193   -0.0859   -0.0359    0.0005
  Px  N    3   -0.0078    0.0083   -0.0295    0.0062    0.0269    0.2504    0.1534    0.0040
  Py  N    3    0.0058    0.0040   -0.0216   -0.0145    0.0046   -0.0043    0.4666   -0.0010
  Pz  N    3    0.0007    0.0804   -0.0709   -0.0879   -0.0036   -0.0647    0.5164   -0.0021
  S   H    4    0.0019   -0.0344    0.0277    0.0335    0.0051    0.0601    0.0150    0.0017
  S   C    5   -0.0013   -0.0211    0.0044    0.0216    0.0042    0.0075   -0.0163    0.0022
  Px  C    5    0.0109    0.0230   -0.0975   -0.0259    0.0035   -0.1930   -0.0577   -0.0079
  Py  C    5    0.0002    0.0528   -0.1729   -0.0344    0.0328    0.0024   -0.1139   -0.0090
  Pz  C    5   -0.0029   -0.0347    0.1329    0.0222   -0.0267   -0.0034   -0.1289    0.0082
  S   H    6   -0.0029   -0.0534    0.1388    0.0435   -0.0231    0.0220   -0.1111    0.0059
  S   C    7   -0.0003    0.0362   -0.0226   -0.0407    0.0011    0.0110    0.0837    0.0022
  Px  C    7   -0.0116    0.1083    0.2120   -0.1151   -0.0697    0.1683   -0.0768    0.0145
  Py  C    7    0.0005   -0.0871    0.2388    0.0691   -0.0507    0.0075    0.2284    0.0034
  Pz  C    7    0.0001    0.1016   -0.2057   -0.0893    0.0432    0.0050    0.0659    0.0008
  S   H    8    0.0074   -0.0734   -0.1403    0.0785    0.0471   -0.1185    0.0116   -0.0075
  S   H    9   -0.0057    0.0095    0.2236   -0.0239   -0.0628    0.0894   -0.0323    0.0040
  S   C   10   -0.0002   -0.0045   -0.0323   -0.0006    0.0027    0.0052   -0.0096    0.0002
  Px  C   10   -0.0018   -0.1821   -0.1037    0.2209    0.0986   -0.0913    0.0556    0.0041
  Py  C   10   -0.0021    0.1080   -0.1936   -0.0819    0.0464    0.0295    0.0353   -0.0115
  Pz  C   10    0.0034   -0.0486    0.1794    0.0212   -0.0588    0.0016    0.1458   -0.0139
  S   C   11   -0.0016    0.0137    0.0265    0.0073    0.0033    0.0074    0.0021   -0.0054
  Px  C   11    0.0037    0.1225    0.0698   -0.2236   -0.0845    0.0736   -0.0126   -0.0262
  Py  C   11    0.0011   -0.0564    0.1930    0.0565   -0.0598    0.0142    0.0518   -0.3214
  Pz  C   11   -0.0017    0.0621   -0.2225   -0.0568    0.0659    0.0008    0.0124   -0.3542
  S   H   12   -0.0030   -0.1263    0.0029    0.1827    0.0553   -0.0513    0.0236    0.0006
  S   C   13    0.0017    0.0008   -0.0022   -0.0039   -0.0231    0.0032   -0.0024   -0.0044
  Px  C   13   -0.0081   -0.1732   -0.0664    0.1901    0.1234   -0.0583    0.0129   -0.0315
  Py  C   13   -0.0035    0.0726   -0.2383   -0.0670    0.0909   -0.0000   -0.0836   -0.3112
  Pz  C   13    0.0033   -0.0469    0.1246    0.0579   -0.0618   -0.0024   -0.0465   -0.3587
  S   H   14    0.0074    0.0454    0.1964   -0.0661   -0.1181    0.0338    0.0087    0.0025
  S   C   15   -0.0008    0.0183   -0.0106   -0.0119    0.0071    0.0025   -0.0025    0.0013
  Px  C   15    0.0071    0.1752    0.0640   -0.1982   -0.0969    0.0568   -0.0203    0.0032
  Py  C   15    0.0047   -0.0740    0.1302    0.0808   -0.0356   -0.0184   -0.0773   -0.0389
  Pz  C   15   -0.0024    0.0472   -0.2113   -0.0233    0.0641   -0.0124   -0.1261   -0.0285
  S   H   16   -0.0027    0.1217   -0.1766   -0.1168    0.0366    0.0207   -0.0254    0.0129
  S   C   17    0.0013   -0.0047   -0.0113    0.0130    0.0043   -0.0169    0.0092   -0.0509
  Px  C   17    0.0018    0.1778    0.0945   -0.2146   -0.0848    0.0877   -0.0453   -0.0086
  Py  C   17    0.0054   -0.0893    0.1110    0.0813   -0.0230   -0.0314    0.0544    0.3400
  Pz  C   17   -0.0017    0.0980   -0.1420   -0.0762    0.0245    0.0194   -0.0038    0.4055
  S   H   18    0.0046    0.0355    0.1464   -0.0631   -0.0691    0.0242    0.0045    0.0033
  S   C   19   -0.0002   -0.0194    0.0031    0.0243   -0.0010   -0.0015   -0.0065    0.0287
  Px  C   19   -0.0064   -0.2152   -0.0976    0.2171    0.1094   -0.0699    0.0306   -0.0144
  Py  C   19   -0.0029    0.0821   -0.1912   -0.0518    0.0533    0.0038   -0.0841    0.3590
  Pz  C   19    0.0055   -0.0930    0.0991    0.0925   -0.0239   -0.0350   -0.0287    0.3500
  S   H   20   -0.0032   -0.1902   -0.0192    0.1923    0.0657   -0.0593    0.0325   -0.0112
  S   O   21    0.0000   -0.0000    0.0000   -0.0000   -0.0000   -0.0001    0.0001   -0.0000
  Px  O   21    0.0000   -0.0008    0.0007    0.0008    0.0002    0.0017    0.0008    0.0000
  Py  O   21    0.0002   -0.0017    0.0001    0.0018    0.0005    0.0024   -0.0003    0.0000
  Pz  O   21   -0.0002    0.0014    0.0004   -0.0014   -0.0006   -0.0024   -0.0012    0.0000
  S   H   22   -0.0000    0.0001   -0.0001   -0.0001   -0.0000   -0.0001    0.0001   -0.0000
  S   H   23   -0.0000   -0.0000    0.0000    0.0000    0.0000    0.0001   -0.0001   -0.0000
  S   O   24   -0.0228   -0.0099   -0.0043   -0.0054    0.0016    0.0072    0.0007    0.0068
  Px  O   24   -0.0911    0.2299    0.0271    0.2009    0.0215   -0.0033    0.0044    0.0086
  Py  O   24    0.0395    0.3860    0.0624    0.2817    0.0162   -0.0694   -0.0069    0.0024
  Pz  O   24   -0.0515    0.5811    0.0685    0.5413    0.0656    0.0023    0.0170   -0.0132
  S   H   25    0.0176    0.0044    0.0012    0.0116    0.0016   -0.0030    0.0005   -0.0105
  S   H   26    0.0130    0.0106    0.0042   -0.0053   -0.0040   -0.0035   -0.0012   -0.0013
  S   O   27   -0.0000    0.0015   -0.0023   -0.0009    0.0006    0.0001   -0.0004    0.0006
  Px  O   27    0.0002    0.0042    0.0064   -0.0049   -0.0035    0.0016   -0.0002   -0.0005
  Py  O   27   -0.0003   -0.0077   -0.0068    0.0085    0.0045   -0.0024    0.0008   -0.0023
  Pz  O   27    0.0000    0.0063    0.0021   -0.0060   -0.0024    0.0017   -0.0007   -0.0013
  S   H   28    0.0001    0.0001    0.0030   -0.0006   -0.0012    0.0003    0.0002   -0.0002
  S   H   29   -0.0000   -0.0015   -0.0003    0.0014    0.0004   -0.0003    0.0002   -0.0003
  S   O   30   -0.0018    0.0000   -0.0015    0.0002    0.0004   -0.0002    0.0010   -0.0021
  Px  O   30    0.0145   -0.0035   -0.0073    0.0032    0.0013   -0.0002   -0.0044    0.0138
  Py  O   30    0.0032   -0.0059   -0.0094    0.0083    0.0047   -0.0037   -0.0030    0.0298
  Pz  O   30    0.0092   -0.0046   -0.0080    0.0054    0.0022   -0.0028   -0.0039    0.0380
  S   H   31    0.0013    0.0016    0.0019   -0.0019   -0.0011    0.0007   -0.0005   -0.0001
  S   H   32    0.0007   -0.0007   -0.0003    0.0008    0.0003   -0.0003   -0.0008    0.0034
  S   O   33    0.0001    0.0087    0.0010   -0.0089   -0.0030    0.0027   -0.0015    0.0015
  Px  O   33   -0.0038   -0.1358   -0.0148    0.1182    0.0377   -0.0261    0.0136   -0.0208
  Py  O   33    0.0017    0.0627    0.0047   -0.0537   -0.0164    0.0115   -0.0055    0.0059
  Pz  O   33    0.0016    0.0681    0.0089   -0.0600   -0.0190    0.0138   -0.0053   -0.0031
  S   H   34   -0.0001   -0.0050   -0.0007    0.0050    0.0017   -0.0015    0.0010   -0.0017
  S   H   35    0.0000   -0.0026   -0.0003    0.0028    0.0009   -0.0010    0.0005   -0.0008
  S   O   36    0.0001    0.0008    0.0051   -0.0015   -0.0016    0.0005    0.0001    0.0014
  Px  O   36    0.0013    0.0088    0.0528   -0.0157   -0.0161    0.0073   -0.0026   -0.0177
  Py  O   36    0.0003    0.0010   -0.0113    0.0006    0.0052   -0.0042    0.0014    0.0027
  Pz  O   36   -0.0024   -0.0142   -0.0809    0.0264    0.0262   -0.0102    0.0021    0.0270
  S   H   37   -0.0001   -0.0008   -0.0031    0.0014    0.0012   -0.0002   -0.0002   -0.0014
  S   H   38   -0.0001   -0.0008   -0.0061    0.0017    0.0020   -0.0008    0.0001   -0.0005
  S   O   39   -0.0001    0.0012    0.0007   -0.0012   -0.0003    0.0013    0.0007    0.0001
  Px  O   39    0.0003   -0.0032   -0.0036    0.0030    0.0013   -0.0021   -0.0003   -0.0001
  Py  O   39    0.0002    0.0012   -0.0053   -0.0014    0.0007   -0.0045    0.0070   -0.0001
  Pz  O   39   -0.0006    0.0095    0.0040   -0.0091   -0.0022    0.0054    0.0039    0.0003
  S   H   40    0.0000   -0.0000   -0.0005    0.0001    0.0001   -0.0004   -0.0014   -0.0000
  S   H   41    0.0001   -0.0016    0.0001    0.0015    0.0002   -0.0011   -0.0007   -0.0001
  S   O   42   -0.0001   -0.0000    0.0015   -0.0004   -0.0002    0.0002   -0.0002   -0.0035
  Px  O   42    0.0004   -0.0008   -0.0105    0.0036    0.0023   -0.0021   -0.0102    0.0076
  Py  O   42    0.0002    0.0031   -0.0157    0.0013    0.0032   -0.0013   -0.0128   -0.0107
  Pz  O   42    0.0006   -0.0009   -0.0166    0.0049    0.0038   -0.0028   -0.0176   -0.0135
  S   H   43    0.0000   -0.0004    0.0010    0.0002   -0.0003   -0.0000    0.0017    0.0066
  S   H   44    0.0001    0.0004   -0.0024    0.0003    0.0003   -0.0001   -0.0002   -0.0009
  S   O   45   -0.0023    0.0017   -0.0037   -0.0010    0.0007   -0.0001    0.0037   -0.0003
  Px  O   45    0.0027   -0.0109    0.0296    0.0073   -0.0037    0.0021   -0.0090   -0.0068
  Py  O   45   -0.0066   -0.0114    0.0344    0.0109   -0.0034    0.0005   -0.0088    0.0023
  Pz  O   45   -0.0287   -0.0442    0.1097    0.0261   -0.0128    0.0016   -0.0306    0.0021
  S   H   46    0.0040   -0.0011    0.0027    0.0008   -0.0005    0.0003   -0.0024    0.0005
  S   H   47   -0.0001   -0.0006    0.0011    0.0004   -0.0002   -0.0003   -0.0018    0.0002
  S   O   48   -0.0111   -0.0002    0.0016    0.0016    0.0001    0.0012   -0.0012    0.0001
  Px  O   48    0.5999   -0.0090   -0.0069    0.0009    0.0015   -0.0001    0.0036   -0.0005
  Py  O   48   -0.0035   -0.0012    0.0004    0.0016    0.0004    0.0041   -0.0039   -0.0001
  Pz  O   48    0.6635   -0.0156    0.0023    0.0165    0.0036    0.0225   -0.0202   -0.0001
  S   H   49    0.0119   -0.0008   -0.0008   -0.0003    0.0002    0.0008   -0.0004   -0.0001
  S   H   50    0.0064    0.0007   -0.0014   -0.0011    0.0000   -0.0008    0.0010   -0.0000
  S   O   51   -0.0001   -0.0002    0.0026   -0.0001   -0.0005    0.0007    0.0002    0.0001
  Px  O   51    0.0006   -0.0009   -0.0169    0.0021    0.0041   -0.0055    0.0019    0.0001
  Py  O   51    0.0002    0.0057   -0.0196   -0.0041    0.0043   -0.0027    0.0052    0.0003
  Pz  O   51    0.0011    0.0069   -0.0435   -0.0035    0.0089   -0.0067    0.0089    0.0002
  S   H   52    0.0001   -0.0005   -0.0028    0.0007    0.0007   -0.0012   -0.0003   -0.0001
  S   H   53    0.0000    0.0006   -0.0023   -0.0004    0.0005   -0.0003    0.0001   -0.0001
  S   O   54   -0.0000    0.0002    0.0001   -0.0003   -0.0001   -0.0004    0.0008   -0.0000
  Px  O   54   -0.0003    0.0031   -0.0020   -0.0027   -0.0003   -0.0027    0.0006   -0.0000
  Py  O   54    0.0003   -0.0036    0.0023    0.0031    0.0003    0.0015   -0.0019   -0.0000
  Pz  O   54   -0.0006    0.0164   -0.0099   -0.0155   -0.0027   -0.0223    0.0055   -0.0003
  S   H   55   -0.0000   -0.0002   -0.0001    0.0002    0.0001    0.0003   -0.0011    0.0000
  S   H   56    0.0000    0.0003   -0.0003   -0.0002   -0.0000   -0.0005   -0.0008    0.0000
  S   O   57   -0.0406    0.0049    0.0034    0.0008   -0.0012   -0.0058   -0.0037    0.0005
  Px  O   57    0.0233   -0.0847   -0.0255   -0.0431    0.0058    0.0575    0.0473    0.0028
  Py  O   57    0.4199    0.1096    0.0054    0.0773    0.0094    0.0224    0.0174   -0.0037
  Pz  O   57   -0.0545   -0.0166    0.0134   -0.0292   -0.0132   -0.0760   -0.0488   -0.0005
  S   H   58    0.0188   -0.0033   -0.0028    0.0000    0.0010    0.0036    0.0000   -0.0001
  S   H   59    0.0309   -0.0015   -0.0005   -0.0015   -0.0004   -0.0030   -0.0001   -0.0004
  S   O   60    0.0001    0.0173    0.0020   -0.0171   -0.0057    0.0051   -0.0020   -0.0019
  Px  O   60    0.0001   -0.0528   -0.0064    0.0483    0.0152   -0.0119    0.0032    0.0061
  Py  O   60   -0.0017    0.0339    0.0041   -0.0299   -0.0091    0.0066   -0.0010   -0.0052
  Pz  O   60    0.0004   -0.0333   -0.0042    0.0324    0.0110   -0.0091    0.0035    0.0019
  S   H   61   -0.0003   -0.0198   -0.0025    0.0198    0.0068   -0.0061    0.0025    0.0021
  S   H   62    0.0002   -0.0015   -0.0001    0.0015    0.0004   -0.0005   -0.0000    0.0013
  S   O   63   -0.0014    0.0012    0.0080   -0.0020   -0.0032    0.0017    0.0001   -0.0004
  Px  O   63    0.0033    0.0441    0.2334   -0.1619    0.6625   -0.0317   -0.0015    0.0027
  Py  O   63    0.0042   -0.0178   -0.1052    0.0586   -0.1788   -0.0006   -0.0004    0.0050
  Pz  O   63   -0.0048   -0.0440   -0.2037    0.1401   -0.5995    0.0324    0.0025   -0.0025
  S   H   64    0.0010   -0.0014   -0.0095    0.0028    0.0046   -0.0019   -0.0002    0.0002
  S   H   65    0.0005   -0.0011   -0.0038    0.0007    0.0014   -0.0006    0.0000    0.0002
  S   O   66   -0.0000   -0.0001   -0.0000    0.0002    0.0000   -0.0001    0.0002   -0.0001
  Px  O   66   -0.0013    0.0320   -0.0438   -0.0245    0.0073    0.0025   -0.0023    0.0003
  Py  O   66    0.0003   -0.0139    0.0216    0.0127   -0.0055   -0.0016    0.0045   -0.0006
  Pz  O   66   -0.0012    0.0313   -0.0449   -0.0248    0.0065    0.0030   -0.0037    0.0009
  S   H   67    0.0001   -0.0024    0.0037    0.0021   -0.0006   -0.0003    0.0002   -0.0000
  S   H   68   -0.0001    0.0025   -0.0037   -0.0024    0.0008    0.0004   -0.0007    0.0002
  S   H   69   -0.0141   -0.0252   -0.0360    0.0471    0.0378    0.2844   -0.0006    0.0036
  S   H   70    0.0063    0.0273   -0.1460   -0.0193    0.0222   -0.1113   -0.0845   -0.0088


   Root No.      93        94        95        96        97        98        99       100

                93 A      94 A      95 A      96 A      97 A      98 A      99 A     100 A   

                -9.474     0.163     0.222     0.728     1.785     2.476     2.590     2.624
  
  S   C    1   -0.0003   -0.0111    0.0063    0.0195   -0.3138   -0.0086   -0.0092   -0.0808
  Px  C    1    0.0144   -0.0337    0.0151    0.1627   -0.3471   -0.0160   -0.0098   -0.0668
  Py  C    1    0.0318   -0.0738    0.0301    0.5796    0.0004   -0.0242   -0.0084   -0.0276
  Pz  C    1    0.0308   -0.0614    0.0260    0.5177    0.1203   -0.0163    0.0084    0.0569
  S   O    2    0.0012   -0.0017    0.0000    0.0099   -0.0005   -0.0013   -0.0033   -0.0112
  Px  O    2   -0.0252    0.0178   -0.0088   -0.0893    0.1415    0.0061    0.0021    0.0192
  Py  O    2   -0.0603    0.0370   -0.0153   -0.2879    0.0130    0.0105   -0.0024   -0.0098
  Pz  O    2   -0.0619    0.0354   -0.0144   -0.2640   -0.0509    0.0076    0.0029    0.0039
  S   N    3   -0.0102    0.0164   -0.0083    0.0253    0.4452    0.0113    0.0134    0.0914
  Px  N    3    0.0162    0.0164   -0.0075   -0.0671    0.0304    0.0049    0.0059    0.0183
  Py  N    3    0.1064    0.0125   -0.0048   -0.2644   -0.0490    0.0273   -0.0091   -0.0690
  Pz  N    3    0.0849    0.0320   -0.0141   -0.2970    0.1168    0.0268    0.0160    0.0863
  S   H    4    0.0197   -0.0152    0.0068   -0.0416   -0.4077   -0.0067   -0.0022   -0.0273
  S   C    5    0.0570   -0.0671    0.0250    0.0120   -0.1811    0.0600   -0.0059   -0.0540
  Px  C    5   -0.0262    0.0131   -0.0052    0.0156    0.3973    0.0158    0.0197    0.1222
  Py  C    5   -0.1675    0.0943   -0.0334   -0.0367   -0.2002   -0.1283   -0.0273   -0.0956
  Pz  C    5   -0.0558    0.0517   -0.0256   -0.0198    0.1407   -0.0673   -0.0044    0.0365
  S   H    6   -0.0054   -0.0115    0.0048    0.0417   -0.0123    0.0080   -0.0012   -0.0159
  S   C    7    0.0166    0.0219   -0.0080   -0.0545    0.0269   -0.0296   -0.0061   -0.0172
  Px  C    7    0.0336   -0.0118   -0.0002    0.0096    0.0046    0.0108    0.0003    0.0155
  Py  C    7    0.1233    0.0345   -0.0187   -0.0904   -0.0051   -0.0972   -0.0233   -0.0257
  Pz  C    7    0.1071    0.0044    0.0026   -0.0473    0.0237   -0.0320    0.0148    0.0187
  S   H    8   -0.0975    0.0519   -0.0246    0.0025    0.0592   -0.0383   -0.0007    0.0251
  S   H    9   -0.0444    0.0302   -0.0072    0.0134   -0.0263   -0.0202    0.0089   -0.0024
  S   C   10   -0.0198    0.0064   -0.0163    0.0067   -0.0395   -0.0052   -0.0081   -0.0128
  Px  C   10   -0.0566    0.0324   -0.0347    0.0062    0.0133   -0.0039   -0.0099    0.0090
  Py  C   10   -0.3686    0.3763   -0.1358    0.0588   -0.0536   -0.2557   -0.0280   -0.0379
  Pz  C   10   -0.3916    0.4094   -0.1555    0.0579    0.0298   -0.2444   -0.0046   -0.0046
  S   C   11    0.0072    0.0003    0.0024   -0.0027    0.0033    0.0011   -0.0103    0.0018
  Px  C   11   -0.0032   -0.0051    0.0279   -0.0021    0.0010    0.0164   -0.0081    0.0037
  Py  C   11   -0.2334   -0.0998    0.3602   -0.0236   -0.0079    0.2557    0.0101    0.0150
  Pz  C   11   -0.2763   -0.1134    0.3998   -0.0232   -0.0035    0.3022    0.0248    0.0226
  S   H   12   -0.0063   -0.0001   -0.0049    0.0007    0.0044    0.0039   -0.0001    0.0035
  S   C   13   -0.0041    0.0029   -0.0022    0.0011   -0.0064    0.0004   -0.0118   -0.0013
  Px  C   13    0.0081   -0.0182   -0.0230   -0.0019    0.0047   -0.0117   -0.0157    0.0041
  Py  C   13    0.1532   -0.2889   -0.2258   -0.0326    0.0138   -0.3001   -0.0165   -0.0220
  Pz  C   13    0.1766   -0.3336   -0.2639   -0.0385    0.0313   -0.3300   -0.0218   -0.0155
  S   H   14   -0.0008   -0.0022    0.0054   -0.0010    0.0013   -0.0028    0.0000    0.0001
  S   C   15   -0.0057   -0.0081    0.0020   -0.0009   -0.0014   -0.0101   -0.0005   -0.0016
  Px  C   15    0.0159    0.0073   -0.0039    0.0016   -0.0009    0.0069   -0.0113    0.0025
  Py  C   15    0.3345    0.3188   -0.1113    0.0522   -0.0273    0.2665    0.0217    0.0126
  Pz  C   15    0.4079    0.3858   -0.1324    0.0627   -0.0301    0.3329    0.0213    0.0189
  S   H   16    0.0051   -0.0043    0.0080   -0.0011   -0.0019   -0.0115    0.0095   -0.0040
  S   C   17    0.0326    0.0443    0.0385   -0.0010    0.0044   -0.0310   -0.0312    0.0011
  Px  C   17    0.0164    0.0127   -0.0031    0.0067   -0.0041    0.0020   -0.0392    0.0084
  Py  C   17   -0.1962   -0.2855   -0.2557   -0.0159   -0.0111    0.2193   -0.0114    0.0148
  Pz  C   17   -0.2160   -0.3110   -0.3094   -0.0123   -0.0092    0.2779    0.0430    0.0167
  S   H   18    0.0046   -0.0239   -0.0169   -0.0021    0.0042    0.0290    0.0398   -0.0013
  S   C   19    0.0063   -0.0053    0.0231   -0.0017   -0.0042   -0.0071   -0.0538    0.0059
  Px  C   19   -0.0131   -0.0040   -0.0044   -0.0005    0.0008   -0.0016   -0.0812    0.0134
  Py  C   19    0.1483   -0.0441    0.4031   -0.0343    0.0164   -0.2805   -0.0073   -0.0209
  Pz  C   19    0.1522   -0.0175    0.4252   -0.0337    0.0296   -0.2763   -0.0314   -0.0099
  S   H   20   -0.0137   -0.0021   -0.0081   -0.0007    0.0020   -0.0000    0.0581   -0.0094
  S   O   21   -0.0000    0.0004   -0.0002    0.0014    0.0429    0.0139   -0.0243   -0.1684
  Px  O   21    0.0005   -0.0003    0.0001   -0.0010   -0.0148   -0.0023    0.0034    0.0224
  Py  O   21    0.0001   -0.0002    0.0001   -0.0002   -0.0088   -0.0020    0.0030    0.0195
  Pz  O   21   -0.0004    0.0005   -0.0003    0.0021    0.0488    0.0148   -0.0261   -0.1812
  S   H   22    0.0001   -0.0006    0.0003   -0.0025   -0.0633   -0.0198    0.0348    0.2418
  S   H   23   -0.0000   -0.0004    0.0002   -0.0017   -0.0630   -0.0229    0.0406    0.2825
  S   O   24    0.0018    0.0043   -0.0046    0.0005    0.0051   -0.0041   -0.0016   -0.0008
  Px  O   24    0.0014    0.0002    0.0002   -0.0020   -0.0045    0.0018    0.0010    0.0002
  Py  O   24    0.0041    0.0036   -0.0083    0.0006    0.0114   -0.0076   -0.0027   -0.0015
  Pz  O   24   -0.0090   -0.0029    0.0062    0.0012   -0.0040    0.0046    0.0011    0.0010
  S   H   25   -0.0036   -0.0069    0.0066   -0.0020   -0.0067    0.0061    0.0025    0.0009
  S   H   26    0.0005   -0.0056    0.0075    0.0013   -0.0107    0.0082    0.0033    0.0021
  S   O   27    0.0000   -0.0000    0.0004   -0.0001   -0.0004    0.0092   -0.2030    0.0318
  Px  O   27    0.0005    0.0002    0.0003    0.0000   -0.0001    0.0028   -0.0696    0.0113
  Py  O   27   -0.0002    0.0017   -0.0001    0.0001   -0.0004    0.0048   -0.1175    0.0185
  Pz  O   27    0.0009    0.0015    0.0009    0.0001   -0.0002    0.0004   -0.0275    0.0049
  S   H   28    0.0000   -0.0002   -0.0004    0.0001    0.0005   -0.0113    0.2579   -0.0405
  S   H   29   -0.0001   -0.0010   -0.0006    0.0001    0.0009   -0.0162    0.3702   -0.0583
  S   O   30   -0.0002    0.0035   -0.0064    0.0006   -0.0013    0.0111   -0.0728    0.0126
  Px  O   30   -0.0012    0.0017   -0.0047    0.0007   -0.0009    0.0093   -0.0711    0.0121
  Py  O   30    0.0064   -0.0030    0.0143   -0.0014    0.0010   -0.0134    0.0472   -0.0088
  Pz  O   30   -0.0005   -0.0069    0.0054   -0.0010    0.0013   -0.0080    0.0660   -0.0110
  S   H   31   -0.0004   -0.0044    0.0117   -0.0011    0.0020   -0.0210    0.1194   -0.0210
  S   H   32    0.0010   -0.0049    0.0053   -0.0007    0.0018   -0.0123    0.1062   -0.0178
  S   O   33    0.0009   -0.0012    0.0027   -0.0004   -0.0002    0.0067   -0.1679    0.0270
  Px  O   33   -0.0075    0.0018   -0.0067    0.0006   -0.0002    0.0010    0.0494   -0.0078
  Py  O   33    0.0019   -0.0004    0.0007   -0.0001   -0.0004    0.0083   -0.1715    0.0273
  Pz  O   33    0.0016    0.0029   -0.0039    0.0008   -0.0001   -0.0062    0.1944   -0.0307
  S   H   34   -0.0009    0.0015   -0.0032    0.0005    0.0004   -0.0123    0.3077   -0.0491
  S   H   35   -0.0003    0.0029   -0.0053    0.0008    0.0002   -0.0097    0.2733   -0.0441
  S   O   36   -0.0007   -0.0036   -0.0029   -0.0006    0.0003    0.0087   -0.1002    0.0134
  Px  O   36    0.0085    0.0034    0.0041    0.0003   -0.0005    0.0014   -0.0913    0.0154
  Py  O   36   -0.0014   -0.0054   -0.0051   -0.0010    0.0008    0.0123   -0.1256    0.0153
  Pz  O   36   -0.0127   -0.0064   -0.0048   -0.0006   -0.0003    0.0102   -0.1265    0.0192
  S   H   37    0.0007    0.0049    0.0035    0.0007   -0.0000   -0.0168    0.2410   -0.0351
  S   H   38    0.0002    0.0060    0.0053    0.0011   -0.0011   -0.0145    0.1286   -0.0148
  S   O   39    0.0020   -0.0014    0.0005   -0.0019    0.0316    0.0162   -0.0242   -0.1477
  Px  O   39   -0.0008    0.0005   -0.0002   -0.0003   -0.0078   -0.0066    0.0101    0.0625
  Py  O   39    0.0008   -0.0004    0.0001   -0.0027    0.0537    0.0218   -0.0323   -0.2094
  Pz  O   39    0.0052   -0.0006    0.0003   -0.0011    0.0115    0.0030   -0.0033   -0.0244
  S   H   40   -0.0011    0.0013   -0.0004    0.0041   -0.0654   -0.0295    0.0441    0.2790
  S   H   41   -0.0020    0.0021   -0.0008    0.0017   -0.0377   -0.0236    0.0360    0.2166
  S   O   42    0.0030    0.0015   -0.0035    0.0006   -0.0006    0.0042   -0.0061    0.0009
  Px  O   42    0.0214    0.0049   -0.0028    0.0010   -0.0008    0.0062   -0.0109    0.0017
  Py  O   42    0.0233    0.0052   -0.0075    0.0015   -0.0014    0.0089   -0.0069    0.0011
  Pz  O   42    0.0378    0.0053   -0.0066    0.0012   -0.0007    0.0043    0.0008    0.0000
  S   H   43   -0.0045    0.0008    0.0035   -0.0002    0.0004   -0.0034    0.0134   -0.0019
  S   H   44   -0.0037   -0.0065    0.0078   -0.0018    0.0019   -0.0133    0.0105   -0.0018
  S   O   45    0.0008    0.0009   -0.0016   -0.0009   -0.0006    0.0038   -0.0263    0.0048
  Px  O   45   -0.0015    0.0015   -0.0022    0.0004   -0.0015    0.0059   -0.0375    0.0063
  Py  O   45   -0.0051   -0.0014    0.0029    0.0011    0.0011   -0.0053    0.0366   -0.0065
  Pz  O   45   -0.0069    0.0004   -0.0005    0.0015    0.0008    0.0001   -0.0019    0.0003
  S   H   46   -0.0005   -0.0020    0.0034    0.0010    0.0016   -0.0100    0.0666   -0.0119
  S   H   47   -0.0006   -0.0009    0.0018    0.0010    0.0006   -0.0036    0.0266   -0.0049
  S   O   48    0.0002   -0.0002   -0.0003    0.0038    0.0063   -0.0001   -0.0040    0.0013
  Px  O   48    0.0009    0.0001   -0.0005   -0.0001    0.0023    0.0005   -0.0049    0.0015
  Py  O   48   -0.0009    0.0003    0.0001   -0.0028    0.0003    0.0001    0.0005   -0.0001
  Pz  O   48   -0.0029    0.0002    0.0004   -0.0038   -0.0066   -0.0001    0.0045   -0.0014
  S   H   49   -0.0003    0.0001    0.0003   -0.0037   -0.0087    0.0001    0.0050   -0.0016
  S   H   50   -0.0002    0.0003    0.0005   -0.0049   -0.0073   -0.0002    0.0072   -0.0023
  S   O   51    0.0011   -0.0019    0.0004   -0.0014    0.0082    0.0080   -0.0158   -0.0572
  Px  O   51   -0.0005    0.0002   -0.0006   -0.0000   -0.0030   -0.0007   -0.0052    0.0132
  Py  O   51    0.0086   -0.0038    0.0010   -0.0027    0.0155    0.0137   -0.0251   -0.0979
  Pz  O   51    0.0085   -0.0010    0.0003   -0.0008    0.0009    0.0005    0.0005   -0.0036
  S   H   52   -0.0012    0.0024   -0.0003    0.0019   -0.0104   -0.0122    0.0296    0.0817
  S   H   53   -0.0005    0.0031   -0.0010    0.0024   -0.0174   -0.0158    0.0272    0.1202
  S   O   54    0.0002    0.0005   -0.0002    0.0008    0.0582    0.0187   -0.0308   -0.2076
  Px  O   54   -0.0002    0.0002   -0.0001    0.0002    0.0236    0.0077   -0.0131   -0.0895
  Py  O   54   -0.0005    0.0010   -0.0004    0.0022    0.0765    0.0243   -0.0415   -0.2852
  Pz  O   54   -0.0018    0.0013   -0.0006    0.0022    0.0602    0.0128   -0.0204   -0.1379
  S   H   55   -0.0003   -0.0007    0.0004   -0.0010   -0.0983   -0.0346    0.0584    0.3979
  S   H   56   -0.0003   -0.0008    0.0004   -0.0014   -0.1053   -0.0351    0.0583    0.3953
  S   O   57    0.0004   -0.0010   -0.0001    0.0160    0.0184   -0.0013   -0.0018    0.0011
  Px  O   57    0.0081   -0.0022   -0.0002    0.0302    0.0311   -0.0022   -0.0033    0.0017
  Py  O   57    0.0014   -0.0014    0.0007    0.0079    0.0073    0.0000   -0.0012    0.0007
  Pz  O   57   -0.0080    0.0031   -0.0007   -0.0315   -0.0298    0.0013    0.0004   -0.0012
  S   H   58   -0.0013    0.0036   -0.0007   -0.0426   -0.0481    0.0025    0.0027   -0.0031
  S   H   59   -0.0005    0.0005    0.0003   -0.0121   -0.0163    0.0014    0.0035   -0.0013
  S   O   60   -0.0003    0.0007   -0.0035    0.0004   -0.0010    0.0135   -0.1513    0.0257
  Px  O   60    0.0015   -0.0002    0.0008    0.0000   -0.0007    0.0137   -0.1917    0.0324
  Py  O   60   -0.0010    0.0013   -0.0046    0.0005   -0.0008    0.0099   -0.0769    0.0134
  Pz  O   60   -0.0004   -0.0003    0.0011   -0.0002    0.0006   -0.0088    0.1330   -0.0220
  S   H   61    0.0002   -0.0010    0.0056   -0.0007    0.0017   -0.0240    0.2519   -0.0433
  S   H   62    0.0005   -0.0006    0.0037   -0.0004    0.0015   -0.0239    0.3105   -0.0524
  S   O   63    0.0001    0.0012    0.0004    0.0002    0.0003    0.0012   -0.0002    0.0000
  Px  O   63   -0.0020    0.0006    0.0008    0.0001   -0.0002    0.0009   -0.0000    0.0001
  Py  O   63   -0.0015    0.0033    0.0011    0.0005    0.0007    0.0026   -0.0004    0.0000
  Pz  O   63    0.0006   -0.0013    0.0002   -0.0002   -0.0003   -0.0005    0.0001    0.0000
  S   H   64   -0.0001   -0.0024   -0.0004   -0.0004   -0.0008   -0.0021    0.0004    0.0000
  S   H   65   -0.0000   -0.0014   -0.0010   -0.0002   -0.0002   -0.0021    0.0003   -0.0001
  S   O   66   -0.0005   -0.0018    0.0004   -0.0003    0.0003   -0.0021   -0.0018    0.0003
  Px  O   66    0.0006   -0.0004   -0.0000   -0.0001   -0.0000   -0.0001    0.0002   -0.0001
  Py  O   66   -0.0073   -0.0048    0.0010   -0.0008    0.0006   -0.0044   -0.0035    0.0005
  Pz  O   66    0.0029    0.0009   -0.0000    0.0001   -0.0001    0.0001   -0.0000    0.0000
  S   H   67    0.0008    0.0045   -0.0009    0.0008   -0.0006    0.0051    0.0040   -0.0005
  S   H   68    0.0007    0.0017   -0.0004    0.0003   -0.0004    0.0028    0.0028   -0.0004
  S   H   69   -0.0062    0.0110   -0.0057   -0.0285    0.1819    0.0056    0.0121    0.0811
  S   H   70   -0.0565    0.0041    0.0009    0.0280    0.0246    0.0048    0.0060    0.0200


              NET ATOMIC CHARGES AND DIPOLE CONTRIBUTIONS

  ATOM NO.   TYPE          CHARGE      No. of ELECS.   s-Pop       p-Pop       
    1          C           0.509703        3.4903     1.09875     2.39154
    2          O          -0.746666        6.7467     1.86940     4.87727
    3          N          -0.508249        5.5082     1.55281     3.95544
    4          H           0.359877        0.6401     0.64012
    5          C          -0.067961        4.0680     1.06643     3.00153
    6          H           0.137378        0.8626     0.86262
    7          C          -0.326419        4.3264     1.07224     3.25418
    8          H           0.152341        0.8477     0.84766
    9          H           0.176664        0.8233     0.82334
   10          C           0.009681        3.9903     1.08806     2.90226
   11          C          -0.219677        4.2197     1.09187     3.12781
   12          H           0.164559        0.8354     0.83544
   13          C          -0.111630        4.1116     1.09132     3.02031
   14          H           0.179622        0.8204     0.82038
   15          C          -0.217507        4.2175     1.08270     3.13480
   16          H           0.159367        0.8406     0.84063
   17          C          -0.169819        4.1698     1.08995     3.07987
   18          H           0.167685        0.8323     0.83232
   19          C          -0.163099        4.1631     1.09839     3.06471
   20          H           0.179600        0.8204     0.82040
   21          O          -0.805544        6.8055     1.79323     5.01232
   22          H           0.428701        0.5713     0.57130
   23          H           0.396734        0.6033     0.60327
   24          O          -0.798105        6.7981     1.84035     4.95775
   25          H           0.430119        0.5699     0.56988
   26          H           0.358821        0.6412     0.64118
   27          O          -0.856334        6.8563     1.79241     5.06393
   28          H           0.402660        0.5973     0.59734
   29          H           0.515964        0.4840     0.48404
   30          O          -0.785676        6.7857     1.79375     4.99193
   31          H           0.357673        0.6423     0.64233
   32          H           0.439336        0.5607     0.56066
   33          O          -0.830166        6.8302     1.83399     4.99617
   34          H           0.372758        0.6272     0.62724
   35          H           0.440340        0.5597     0.55966
   36          O          -0.799282        6.7993     1.83307     4.96621
   37          H           0.389927        0.6101     0.61007
   38          H           0.378084        0.6219     0.62192
   39          O          -0.776802        6.7768     1.79574     4.98107
   40          H           0.384097        0.6159     0.61590
   41          H           0.388413        0.6116     0.61159
   42          O          -0.816306        6.8163     1.85385     4.96246
   43          H           0.418652        0.5813     0.58135
   44          H           0.382743        0.6173     0.61726
   45          O          -0.848042        6.8480     1.81267     5.03537
   46          H           0.400499        0.5995     0.59950
   47          H           0.420265        0.5797     0.57973
   48          O          -0.706757        6.7068     1.79463     4.91212
   49          H           0.396955        0.6030     0.60305
   50          H           0.330458        0.6695     0.66954
   51          O          -0.810438        6.8104     1.81073     4.99970
   52          H           0.424949        0.5751     0.57505
   53          H           0.374109        0.6259     0.62589
   54          O          -0.806565        6.8066     1.84621     4.96035
   55          H           0.368388        0.6316     0.63161
   56          H           0.434765        0.5652     0.56523
   57          O          -0.850265        6.8503     1.83532     5.01494
   58          H           0.388221        0.6118     0.61178
   59          H           0.413515        0.5865     0.58649
   60          O          -0.791455        6.7915     1.83091     4.96054
   61          H           0.376256        0.6237     0.62374
   62          H           0.414437        0.5856     0.58556
   63          O          -0.775482        6.7755     1.82865     4.94683
   64          H           0.356723        0.6433     0.64328
   65          H           0.418068        0.5819     0.58193
   66          O          -0.828083        6.8281     1.84006     4.98803
   67          H           0.390820        0.6092     0.60918
   68          H           0.436438        0.5636     0.56356
   69          H           0.178558        0.8214     0.82144
   70          H           0.211407        0.7886     0.78859
 DIPOLE           X         Y         Z       TOTAL
 POINT-CHG.    13.358    24.586    -5.201    28.459
 HYBRID         0.992     1.800    -0.057     2.056
 SUM           14.350    26.386    -5.259    30.493


          ATOMIC ORBITAL ELECTRON POPULATIONS

     Atom    s        px        py        pz   
    1  C   1.09875   0.84336   0.78956   0.75862
    2  O   1.86940   1.84885   1.55808   1.47034
    3  N   1.55281   1.15554   1.38350   1.41639
    4  H   0.64012
    5  C   1.06643   0.92440   0.99128   1.08585
    6  H   0.86262
    7  C   1.07224   1.19315   1.00894   1.05208
    8  H   0.84766
    9  H   0.82334
   10  C   1.08806   0.97365   0.96415   0.96445
   11  C   1.09187   1.09308   1.01403   1.02070
   12  H   0.83544
   13  C   1.09132   1.03884   0.99207   0.98939
   14  H   0.82038
   15  C   1.08270   1.00452   1.06035   1.06994
   16  H   0.84063
   17  C   1.08995   1.01387   1.03743   1.02857
   18  H   0.83232
   19  C   1.09839   1.09056   0.99693   0.97722
   20  H   0.82040
   21  O   1.79323   1.42995   1.97381   1.60856
   22  H   0.57130
   23  H   0.60327
   24  O   1.84035   1.55588   1.59686   1.80501
   25  H   0.56988
   26  H   0.64118
   27  O   1.79241   1.59280   1.67880   1.79233
   28  H   0.59734
   29  H   0.48404
   30  O   1.79375   1.78185   1.48468   1.72540
   31  H   0.64233
   32  H   0.56066
   33  O   1.83399   1.82062   1.55245   1.62310
   34  H   0.62724
   35  H   0.55966
   36  O   1.83307   1.62436   1.55187   1.78998
   37  H   0.61007
   38  H   0.62192
   39  O   1.79574   1.59011   1.56580   1.82516
   40  H   0.61590
   41  H   0.61159
   42  O   1.85385   1.55973   1.60088   1.80184
   43  H   0.58135
   44  H   0.61726
   45  O   1.81267   1.47767   1.62740   1.93030
   46  H   0.59950
   47  H   0.57973
   48  O   1.79463   1.70319   1.43210   1.77683
   49  H   0.60305
   50  H   0.66954
   51  O   1.81073   1.46285   1.57374   1.96311
   52  H   0.57505
   53  H   0.62589
   54  O   1.84621   1.48171   1.59696   1.88169
   55  H   0.63161
   56  H   0.56523
   57  O   1.83532   1.63018   1.88449   1.50027
   58  H   0.61178
   59  H   0.58649
   60  O   1.83091   1.65586   1.72813   1.57655
   61  H   0.62374
   62  H   0.58556
   63  O   1.82865   1.74456   1.52923   1.67303
   64  H   0.64328
   65  H   0.58193
   66  O   1.84006   1.80461   1.52043   1.66298
   67  H   0.60918
   68  H   0.56356
   69  H   0.82144
   70  H   0.78859


          SIGMA-PI BOND-ORDER MATRIX

                 S-SIGMA    P-SIGMA      P-PI     S-SIGMA    P-SIGMA      P-PI 
                  C  1       C  1       C  1       O  2       O  2       O  2
------------------------------------------------------------------------------
 S-SIGMA  C  1   0.956903
 P-SIGMA  C  1   0.000000   1.769825
   P-PI   C  1   0.000000   0.000000   1.036835
 S-SIGMA  O  2   0.022051   0.126769   0.000161   0.174345
 P-SIGMA  O  2   0.261949   0.518386   0.004824   0.000000   0.887675
   P-PI   O  2   0.007486   0.002077   0.518044   0.000000   0.000000   0.684052
 S-SIGMA  N  3   0.049264   0.186514   0.004759   0.000656   0.007141   0.013273
 P-SIGMA  N  3   0.218902   0.378703   0.004538   0.000096   0.011837   0.007631
   P-PI   N  3   0.001083   0.000051   0.472921   0.001223   0.000452   0.115947
 S-SIGMA  H  4   0.003419   0.005405   0.007919   0.000138   0.012983   0.003166
 S-SIGMA  C  5   0.000178   0.000618   0.000122   0.000127   0.000005   0.000811
 P-SIGMA  C  5   0.000238   0.010936   0.002600   0.000275   0.000608   0.002162
   P-PI   C  5   0.000284   0.000824   0.000684   0.000120   0.000979   0.002320
 S-SIGMA  H  6   0.000105   0.000214   0.001555   0.000000   0.000371   0.000663
 S-SIGMA  C  7   0.000024   0.000127   0.001996   0.000001   0.000030   0.000720
 P-SIGMA  C  7   0.000175   0.000092   0.004257   0.000004   0.000039   0.001001
   P-PI   C  7   0.000018   0.000361   0.002104   0.000005   0.000202   0.001290
 S-SIGMA  H  8   0.000076   0.000228   0.000126   0.000003   0.000008   0.000041
 S-SIGMA  H  9   0.000013   0.000008   0.000132   0.000001   0.000001   0.000024
 S-SIGMA  C 10   0.000002   0.000006   0.000059   0.000001   0.000005   0.000020
 P-SIGMA  C 10   0.000009   0.000007   0.000096   0.000001   0.000001   0.000004
   P-PI   C 10   0.000003   0.000006   0.000102   0.000002   0.000010   0.000066
 S-SIGMA  C 11   0.000000   0.000000   0.000007   0.000004   0.000014   0.000000
 P-SIGMA  C 11   0.000001   0.000005   0.000016   0.000010   0.000013   0.000023
   P-PI   C 11   0.000001   0.000012   0.000142   0.000003   0.000010   0.000055
 S-SIGMA  H 12   0.000005   0.000006   0.000001   0.000000   0.000044   0.000001
[...]
  
  S  C   5   0.00001     0.00007     0.00723     0.00033    -0.00013    -0.00000
 PX  C   5   0.00000    -0.00011    -0.00135    -0.00009    -0.00004     0.00001
 PY  C   5  -0.00002     0.00007    -0.00156    -0.00005     0.00015    -0.00001
 PZ  C   5  -0.00001     0.00011     0.00867     0.00022    -0.00006     0.00001
  
  S  H   6  -0.00000    -0.00002    -0.01436    -0.00032     0.00013    -0.00002
  
  S  C   7   0.00003    -0.00000    -0.00012    -0.00006    -0.00016     0.00010
 PX  C   7   0.00002    -0.00003     0.00009    -0.00001    -0.00014     0.00005
 PY  C   7  -0.00004     0.00006    -0.00051    -0.00012     0.00032    -0.00012
 PZ  C   7   0.00003    -0.00003     0.00016    -0.00007    -0.00023     0.00013
  
  S  H   8  -0.00001     0.00004     0.00011    -0.00000     0.00011     0.00006
  
  S  H   9  -0.00000     0.00002     0.00059     0.00003     0.00000    -0.00008
  
  S  C  10   0.00009    -0.00010    -0.00022    -0.00001    -0.00085    -0.00055
 PX  C  10   0.00001     0.00012     0.00007     0.00001     0.00034     0.00060
 PY  C  10  -0.00018     0.00040    -0.00047     0.00002     0.00149     0.00026
 PZ  C  10  -0.00006     0.00025     0.00012     0.00001     0.00003    -0.00038
  
  S  C  11   0.00024     0.00068     0.00013     0.00008     0.00534     0.00053
 PX  C  11   0.00007    -0.00090    -0.00005    -0.00013    -0.00591     0.00051
 PY  C  11  -0.00027     0.00024     0.00024     0.00006     0.00121    -0.00039
 PZ  C  11   0.00029    -0.00006     0.00023     0.00003    -0.00215     0.00009
  
  S  H  12  -0.00007    -0.00009    -0.00008     0.00001    -0.01087     0.00044
  
  S  C  13   0.00004     0.00023    -0.00002     0.00001     0.00090    -0.00635
 PX  C  13  -0.00027    -0.00018     0.00001    -0.00002    -0.00052     0.00576
 PY  C  13  -0.00006    -0.00003    -0.00000    -0.00000    -0.00015     0.00440
 PZ  C  13   0.00043     0.00026     0.00014     0.00004     0.00081    -0.00345
  
  S  H  14  -0.00059    -0.00012    -0.00004    -0.00000    -0.00170     0.01393
  
  S  C  15   0.00349    -0.00003     0.00001    -0.00000     0.00001     0.00014
 PX  C  15   0.00149     0.00003     0.00000    -0.00000    -0.00015    -0.00015
 PY  C  15  -0.00352     0.00011    -0.00015    -0.00001    -0.00002     0.00026
 PZ  C  15   0.00258     0.00015    -0.00014    -0.00001     0.00013    -0.00068
  
  S  H  16  -0.00759    -0.00003    -0.00004    -0.00000    -0.00011     0.00074
  
  S  C  17   0.00026     0.00009     0.00013     0.00000     0.00052    -0.00017
 PX  C  17   0.00013    -0.00011     0.00005    -0.00002    -0.00074     0.00007
 PY  C  17  -0.00028    -0.00004     0.00016    -0.00000     0.00028     0.00017
 PZ  C  17   0.00032    -0.00007     0.00009    -0.00000    -0.00009     0.00004
  
  S  H  18  -0.00007    -0.00004    -0.00015    -0.00000    -0.00021    -0.00009
  
  S  C  19  -0.00026     0.00003     0.00001    -0.00000     0.00021    -0.00048
 PX  C  19   0.00032    -0.00004     0.00005    -0.00001    -0.00016     0.00051
 PY  C  19   0.00012    -0.00017     0.00001    -0.00002    -0.00036     0.00044
 PZ  C  19   0.00014    -0.00014     0.00011    -0.00002    -0.00035    -0.00039
  
  S  H  20  -0.00025    -0.00000    -0.00005     0.00000     0.00004     0.00014
  
  S  O  21   0.00000    -0.00000    -0.00001     0.00001    -0.00000     0.00000
 PX  O  21   0.00000    -0.00000     0.00001    -0.00001     0.00000    -0.00000
 PY  O  21  -0.00000    -0.00000     0.00000    -0.00000     0.00000    -0.00000
 PZ  O  21   0.00000     0.00000    -0.00002     0.00001    -0.00000     0.00000
  
  S  H  22  -0.00000     0.00000     0.00003    -0.00001     0.00000    -0.00000
  
  S  H  23  -0.00000     0.00000     0.00001    -0.00001     0.00000    -0.00000
  
  S  O  24   0.00001     0.01130     0.00011     0.00101    -0.00050     0.00008
 PX  O  24  -0.00000    -0.01570     0.00001    -0.00104     0.34715    -0.00025
 PY  O  24  -0.00000     0.01283     0.00023     0.00221     0.46520     0.00010
 PZ  O  24   0.00000    -0.00064    -0.00013    -0.00059     0.81414     0.00008
  
  S  H  25  -0.00001    -0.04151    -0.00004    -0.00136    -0.00020    -0.00055
  
  S  H  26  -0.00001    -0.02195    -0.00043    -0.00221     0.00002    -0.00004
  
  S  O  27   0.00000     0.00000     0.00001    -0.00000     0.00001    -0.00000
 PX  O  27   0.00000    -0.00000    -0.00000     0.00000    -0.00000    -0.00000
 PY  O  27   0.00000     0.00000     0.00001    -0.00000     0.00001     0.00000
 PZ  O  27   0.00000     0.00000     0.00001    -0.00000     0.00000    -0.00000
  
  S  H  28  -0.00001    -0.00000    -0.00000     0.00000    -0.00001     0.00000
  
  S  H  29  -0.00001    -0.00000    -0.00002     0.00001    -0.00001     0.00000
  
  S  O  30   0.00000     0.00001     0.00029    -0.00010    -0.00001    -0.00001
 PX  O  30   0.00000    -0.00000     0.00028     0.00005     0.00002    -0.00000
 PY  O  30  -0.00000    -0.00000     0.00002    -0.00001    -0.00001     0.00001
 PZ  O  30  -0.00000    -0.00000    -0.00035     0.00004    -0.00000     0.00000
  
  S  H  31   0.00000    -0.00001    -0.00047     0.00015     0.00001     0.00001
  
  S  H  32  -0.00000    -0.00000    -0.00099     0.00011     0.00001     0.00000
  
  S  O  33   0.00001    -0.00000     0.00000    -0.00000     0.00000    -0.00001
 PX  O  33  -0.00001     0.00000    -0.00000     0.00000     0.00000     0.00001
 PY  O  33   0.00001     0.00000     0.00001    -0.00000     0.00000    -0.00001
 PZ  O  33  -0.00000     0.00000    -0.00000     0.00000    -0.00000     0.00000
  
  S  H  34  -0.00001    -0.00000    -0.00000     0.00000    -0.00001     0.00001
  
  S  H  35  -0.00001     0.00000    -0.00001     0.00000    -0.00000     0.00001
  
  S  O  36   0.00000     0.00000    -0.00000    -0.00000     0.00001     0.00000
 PX  O  36  -0.00000     0.00000     0.00001    -0.00000     0.00000    -0.00000
 PY  O  36   0.00001     0.00000    -0.00001    -0.00000     0.00001     0.00001
 PZ  O  36   0.00001     0.00000     0.00000    -0.00000     0.00001     0.00000
  
  S  H  37  -0.00001    -0.00000     0.00000     0.00000    -0.00002    -0.00000
  
  S  H  38  -0.00001    -0.00000     0.00002     0.00000    -0.00001    -0.00001
  
  S  O  39   0.00000    -0.00000    -0.00001     0.00000    -0.00000     0.00000
 PX  O  39  -0.00000     0.00000     0.00000     0.00000     0.00000     0.00000
 PY  O  39   0.00000     0.00000    -0.00001     0.00001    -0.00000     0.00000
 PZ  O  39   0.00000    -0.00000    -0.00000     0.00000    -0.00000     0.00000
  
  S  H  40  -0.00000     0.00000     0.00002    -0.00001     0.00000    -0.00000
  
  S  H  41  -0.00000     0.00000     0.00002    -0.00000     0.00000    -0.00000
  
  S  O  42   0.00001     0.00001     0.00001     0.00000     0.00002    -0.00002
 PX  O  42   0.00001     0.00001     0.00001     0.00000     0.00001    -0.00001
 PY  O  42   0.00002     0.00002     0.00002     0.00000     0.00004    -0.00004
 PZ  O  42   0.00001     0.00001     0.00001     0.00000     0.00002    -0.00003
  
  S  H  43  -0.00000    -0.00001    -0.00001    -0.00000    -0.00001     0.00001
  
  S  H  44  -0.00003    -0.00003    -0.00004    -0.00000    -0.00006     0.00005
  
  S  O  45   0.00000     0.00005     0.00375    -0.00099    -0.00031    -0.00000
 PX  O  45  -0.00000    -0.00007     0.22993     0.00033     0.00028    -0.00000
 PY  O  45  -0.00000    -0.00009     0.29529     0.00151     0.00047     0.00001
 PZ  O  45   0.00000     0.00004     0.92712    -0.00057    -0.00021    -0.00000
  
  S  H  46  -0.00000    -0.00002    -0.00002     0.00128     0.00017     0.00000
  
  S  H  47  -0.00000    -0.00015     0.00013     0.00386     0.00132     0.00001
  
  S  O  48   0.00000     0.00017     0.00095     0.01892    -0.00067     0.00000
 PX  O  48   0.00000     0.00019     0.00134     0.65187    -0.00044    -0.00000
 PY  O  48  -0.00000    -0.00045    -0.00100    -0.01849     0.00040    -0.00000
 PZ  O  48  -0.00000    -0.00028    -0.00122     0.75496     0.00066    -0.00000
  
  S  H  49  -0.00000     0.00031     0.00002    -0.00240     0.00052    -0.00000
  
  S  H  50  -0.00000    -0.00070    -0.00386    -0.00004     0.00181    -0.00000
  
  S  O  51   0.00000    -0.00000    -0.00002    -0.00000    -0.00000     0.00000
 PX  O  51   0.00000     0.00000    -0.00000    -0.00000     0.00000     0.00000
 PY  O  51   0.00000    -0.00000    -0.00003    -0.00000    -0.00000     0.00000
 PZ  O  51   0.00000    -0.00000    -0.00001    -0.00000    -0.00000     0.00000
  
  S  H  52  -0.00000     0.00000     0.00003     0.00000     0.00000    -0.00000
  
  S  H  53  -0.00000     0.00000     0.00004     0.00000     0.00001    -0.00000
  
  S  O  54   0.00000    -0.00000    -0.00003     0.00001    -0.00000     0.00000
 PX  O  54   0.00000     0.00000    -0.00000     0.00001    -0.00000     0.00000
 PY  O  54  -0.00000    -0.00000    -0.00003     0.00001    -0.00000     0.00000
 PZ  O  54   0.00000     0.00000    -0.00004     0.00003    -0.00000     0.00000
  
  S  H  55  -0.00000     0.00000     0.00004    -0.00001     0.00000    -0.00000
  
  S  H  56  -0.00000     0.00000     0.00006    -0.00001     0.00000    -0.00000
  
  S  O  57   0.00000     0.00793     0.00005     0.01369    -0.00137     0.00001
 PX  O  57   0.00000    -0.43893     0.00013     0.02164    -0.00210     0.00001
 PY  O  57  -0.00000     0.87232     0.00006     0.01200    -0.00104    -0.00001
 PZ  O  57  -0.00000    -0.20877     0.00003     0.00552     0.00005    -0.00000
  
  S  H  58  -0.00000     0.00139    -0.00002    -0.02038     0.00305    -0.00000
  
  S  H  59  -0.00000    -0.00009    -0.00010    -0.05568     0.00441    -0.00001
  
  S  O  60   0.00001     0.00000     0.00002    -0.00001    -0.00000    -0.00001
 PX  O  60   0.00000    -0.00000    -0.00000    -0.00000     0.00000    -0.00001
 PY  O  60  -0.00000     0.00000     0.00004    -0.00002    -0.00000    -0.00000
 PZ  O  60  -0.00001    -0.00000    -0.00001     0.00000    -0.00000     0.00001
  
  S  H  61  -0.00001    -0.00000    -0.00003     0.00001    -0.00000     0.00002
  
  S  H  62  -0.00001    -0.00000    -0.00003     0.00001    -0.00000     0.00002
  
  S  O  63   0.00034     0.00033     0.00000     0.00003     0.00020     0.00047
 PX  O  63   0.00044    -0.00018    -0.00000    -0.00002    -0.00047     0.72618
 PY  O  63   0.00050     0.00080     0.00001     0.00009     0.00044    -0.21761
 PZ  O  63   0.00031    -0.00045    -0.00001    -0.00005    -0.00070    -0.65193
  
  S  H  64  -0.00022    -0.00089    -0.00001    -0.00007    -0.00163    -0.00027
  
  S  H  65  -0.00161    -0.00019    -0.00000    -0.00001     0.00085    -0.00007
  
  S  O  66   0.00047     0.00000     0.00000    -0.00000     0.00000    -0.00019
 PX  O  66   0.79631    -0.00000     0.00000    -0.00000     0.00000     0.00014
 PY  O  66  -0.01951     0.00000     0.00000    -0.00000     0.00000    -0.00026
 PZ  O  66   0.60450     0.00000    -0.00000     0.00000    -0.00000    -0.00018
  
  S  H  67   0.00014    -0.00000    -0.00000     0.00000    -0.00000     0.00032
  
  S  H  68  -0.00003    -0.00000    -0.00000    -0.00000    -0.00000     0.00072
  
  S  H  69   0.00000     0.00061     0.00001    -0.00012    -0.00000     0.00000
  
  S  H  70  -0.00000    -0.00003    -0.00036    -0.00004    -0.00002     0.00000




    ROOT NO.   91          92          93

           -11.14253   -10.96769   -10.90792
  
  
  S  C   1   0.00056    -0.00055    -0.00056
 PX  C   1   0.00166    -0.00165    -0.00292
 PY  C   1   0.00236    -0.00212    -0.00464
 PZ  C   1   0.00175    -0.00160    -0.00228
  
  S  O   2   0.00004    -0.00005    -0.00039
 PX  O   2  -0.00044     0.00048     0.00038
 PY  O   2  -0.00050     0.00059     0.00055
 PZ  O   2  -0.00077     0.00083     0.00123
  
  S  N   3  -0.00158     0.00191     0.00320
 PX  N   3  -0.00154     0.00205     0.00306
 PY  N   3   0.00162    -0.00241    -0.00181
 PZ  N   3  -0.00052     0.00049     0.00148
  
  S  H   4   0.00170    -0.00203    -0.00307
  
  S  C   5   0.01022    -0.01288    -0.02212
 PX  C   5  -0.00152     0.00207     0.00377
 PY  C   5  -0.01284     0.01582     0.02079
 PZ  C   5  -0.00765     0.00780     0.01285
  
  S  H   6  -0.00044     0.00083     0.00791
  
  S  C   7  -0.00193     0.00215     0.00554
 PX  C   7   0.00069    -0.00042    -0.00163
 PY  C   7  -0.00658     0.00501     0.02610
 PZ  C   7  -0.00103    -0.00209     0.01546
  
  S  H   8  -0.00855     0.01101     0.01088
  
  S  H   9  -0.00452     0.00406     0.00778
  
  S  C  10  -0.00588     0.00981     0.01301
 PX  C  10  -0.01683     0.02223     0.04689
 PY  C  10  -0.12556     0.18042     0.40404
 PZ  C  10  -0.13926     0.20047     0.44498
  
  S  C  11   0.00160    -0.00149    -0.00193
 PX  C  11   0.00714    -0.00616     0.03108
 PY  C  11   0.08913    -0.07820     0.45899
 PZ  C  11   0.09964    -0.08560     0.52050
  
  S  H  12  -0.00105     0.00072     0.00006
  
  S  C  13  -0.00063     0.00005    -0.00047
 PX  C  13   0.02581    -0.00902     0.01423
 PY  C  13   0.39037    -0.12200     0.18833
 PZ  C  13   0.45134    -0.14117     0.21715
  
  S  H  14  -0.00066    -0.00009    -0.00028
  
  S  C  15  -0.01109    -0.00090     0.00193
 PX  C  15   0.01483     0.00083    -0.00139
 PY  C  15   0.44750     0.08534    -0.07467
 PZ  C  15   0.53707     0.10096    -0.08997
  
  S  H  16  -0.00091    -0.00013    -0.00041
  
  S  C  17   0.01244    -0.09436    -0.00957
 PX  C  17  -0.00081    -0.01408     0.00239
 PY  C  17  -0.08194     0.48404     0.09148
 PZ  C  17  -0.09632     0.49070     0.10768
  
  S  H  18  -0.00424     0.01052     0.00070
  
  S  C  19   0.00936     0.00398    -0.00715
 PX  C  19  -0.00292    -0.00036     0.00211
 PY  C  19   0.18865     0.39889    -0.12516
 PZ  C  19   0.20889     0.46378    -0.13595
  
  S  H  20  -0.00326    -0.00422     0.00318
  
  S  O  21  -0.00001     0.00001     0.00002
 PX  O  21   0.00002    -0.00002    -0.00003
 PY  O  21   0.00000    -0.00000    -0.00000
 PZ  O  21  -0.00002     0.00002     0.00003
  
  S  H  22   0.00004    -0.00004    -0.00008
  
  S  H  23   0.00001    -0.00001    -0.00001
  
  S  O  24  -0.00094     0.00075    -0.00226
 PX  O  24   0.00020    -0.00006     0.00132
 PY  O  24  -0.00136     0.00096    -0.00338
 PZ  O  24   0.00083    -0.00061     0.00122
  
  S  H  25   0.00251    -0.00195     0.00497
  
  S  H  26   0.00251    -0.00230     0.01013
  
  S  O  27   0.00004     0.00007    -0.00000
 PX  O  27   0.00001    -0.00000    -0.00002
 PY  O  27  -0.00002    -0.00045     0.00001
 PZ  O  27   0.00005    -0.00032    -0.00006
  
  S  H  28  -0.00005    -0.00022     0.00000
  
  S  H  29  -0.00017     0.00096    -0.00006
  
  S  O  30  -0.00120    -0.00422     0.00076
 PX  O  30  -0.00094    -0.00399     0.00083
 PY  O  30   0.00262     0.00383    -0.00175
 PZ  O  30   0.00085     0.00255    -0.00031
  
  S  H  31   0.00401     0.01568    -0.00322
  
  S  H  32   0.00072     0.00876    -0.00079
  
  S  O  33   0.00050     0.00161    -0.00038
 PX  O  33  -0.00101    -0.00132     0.00062
 PY  O  33  -0.00002     0.00012    -0.00003
 PZ  O  33  -0.00080    -0.00265     0.00052
  
  S  H  34  -0.00064    -0.00334     0.00072
  
  S  H  35  -0.00178    -0.00801     0.00162
  
  S  O  36  -0.00037     0.00182     0.00041
 PX  O  36   0.00030     0.00049    -0.00054
 PY  O  36  -0.00067     0.00281     0.00072
 PZ  O  36  -0.00030     0.00070     0.00061
  
  S  H  37   0.00079    -0.00536    -0.00049
  
  S  H  38   0.00140    -0.00729    -0.00110
  
  S  O  39   0.00012    -0.00014    -0.00021
 PX  O  39  -0.00003     0.00003     0.00009
 PY  O  39   0.00011    -0.00012    -0.00023
 PZ  O  39   0.00007    -0.00010    -0.00005
  
  S  H  40  -0.00028     0.00029     0.00059
  
  S  H  41  -0.00027     0.00028     0.00051
  
  S  O  42   0.01050     0.00503     0.00337
 PX  O  42   0.00910     0.00501     0.00231
 PY  O  42   0.02049     0.00982     0.00713
 PZ  O  42   0.00803     0.00422     0.00344
  
  S  H  43  -0.01136    -0.00578    -0.00235
  
  S  H  44  -0.06227    -0.02765    -0.01971
  
  S  O  45  -0.00051    -0.00125    -0.00081
 PX  O  45  -0.00012    -0.00188     0.00030
 PY  O  45   0.00080     0.00157     0.00115
 PZ  O  45  -0.00027     0.00005    -0.00037
  
  S  H  46   0.00101     0.00608     0.00142
  
  S  H  47   0.00183     0.00151     0.00359
  
  S  O  48  -0.00003    -0.00002    -0.00018
 PX  O  48  -0.00004    -0.00006    -0.00022
 PY  O  48   0.00003     0.00002     0.00015
 PZ  O  48   0.00004     0.00004     0.00023
  
  S  H  49   0.00002     0.00001     0.00012
  
  S  H  50   0.00007     0.00006     0.00062
  
  S  O  51   0.00017    -0.00014    -0.00024
 PX  O  51  -0.00010     0.00019     0.00012
 PY  O  51   0.00033    -0.00033    -0.00040
 PZ  O  51   0.00009    -0.00014    -0.00004
  
  S  H  52  -0.00020    -0.00005     0.00042
  
  S  H  53  -0.00048     0.00042     0.00092
  
  S  O  54  -0.00001     0.00002     0.00003
 PX  O  54  -0.00000     0.00000    -0.00000
 PY  O  54  -0.00004     0.00005     0.00007
 PZ  O  54  -0.00005     0.00007     0.00007
  
  S  H  55   0.00002    -0.00002    -0.00004
  
  S  H  56   0.00004    -0.00004    -0.00009
  
  S  O  57  -0.00004     0.00004    -0.00026
 PX  O  57  -0.00008     0.00006    -0.00044
 PY  O  57   0.00007    -0.00005     0.00001
 PZ  O  57   0.00000    -0.00000     0.00032
  
  S  H  58   0.00004    -0.00010     0.00083
  
  S  H  59   0.00009    -0.00009     0.00037
  
  S  O  60  -0.00030    -0.00077     0.00023
 PX  O  60   0.00015    -0.00066     0.00000
 PY  O  60  -0.00046    -0.00103     0.00031
 PZ  O  60   0.00007    -0.00005    -0.00001
  
  S  H  61   0.00086     0.00250    -0.00080
  
  S  H  62   0.00050     0.00160    -0.00044
  
  S  O  63  -0.00060     0.00024    -0.00037
 PX  O  63  -0.00017     0.00006    -0.00006
 PY  O  63  -0.00103     0.00052    -0.00078
 PZ  O  63   0.00017    -0.00018     0.00028
  
  S  H  64   0.00190    -0.00076     0.00123
  
  S  H  65   0.00175    -0.00049     0.00057
  
  S  O  66  -0.00095    -0.00021     0.00023
 PX  O  66  -0.00029    -0.00011     0.00009
 PY  O  66  -0.00171    -0.00056     0.00050
 PZ  O  66   0.00026     0.00018    -0.00013
  
  S  H  67   0.00525     0.00087    -0.00107
  
  S  H  68   0.00108     0.00011    -0.00024
  
  S  H  69  -0.00066     0.00073     0.00090
  
  S  H  70  -0.00111     0.00218     0.00205

          BONDING CONTRIBUTION OF EACH M.O.

  1.8036  1.6660  1.9077  1.6717  1.6968  1.6687  1.6859  1.7754  0.0859  1.6290
  1.8553  1.6971  1.7160  0.0346  1.7140  1.6572  1.6861  1.6920  1.7097  1.6451
  0.0000  1.6210  0.0361  0.0107  1.9983  0.0220  1.6377  1.7425  1.6272  1.6200
  0.0011  1.6727  1.9928  0.0265  1.6078  1.6143  1.6316  1.7301  1.6404  0.0000
  1.9978  1.6206  1.6828  1.9970  1.9013  0.1192  0.0454  0.0009  0.0041  1.4726
  1.9986  1.6082  0.0040  0.0686  1.9886  0.0002  0.0015  1.6170  1.6466  1.6187
  1.9942  1.9483  1.9646  1.9171  1.9521  1.9406  1.9535  1.9383  1.9955  1.9387
  1.9648  1.0191  0.0406  0.0004  0.0199  0.0436  0.0826  1.0670  0.0010  0.0206
  0.2613  0.0001  0.0018  0.0221  0.0006  0.0177  0.0022  0.0282  0.0015  0.0019
  2.0011  1.9836  2.0052 -1.9894 -2.0046 -2.0308 -1.9072 -1.9943 -1.7176 -1.7340
 -1.8865 -1.7204 -1.6987 -1.9414 -1.9519 -1.7321 -1.6715 -1.6702 -1.7557 -1.7125
 -1.9293 -1.7796 -1.7900 -1.7816 -1.8637 -1.7985 -1.6853 -1.7992 -1.9506 -1.9848
 -1.9629 -1.8719 -1.8218 -1.6943 -1.8930 -1.6849 -1.9221 -1.9839 -1.7743 -1.7033
 -1.6644 -1.6653 -1.8081 -1.6948 -1.8946 -1.8876 -1.7523 -1.9181 -1.8911 -1.8416
 -1.7939 -1.9292 -1.7134 -1.7024 -1.6250 -1.7109 -1.7118 -1.6897 -1.6894 -1.6947
 -1.6817

           DATA FOR GRAPH WRITTEN TO DISK

 **********************
 *                    *
 * JOB ENDED NORMALLY *
 *                    *
 **********************



 TOTAL JOB TIME:             0.80 SECONDS

 == MOPAC DONE ==
