 *******************************************************************************
 ** Site#: 34139        For non-commercial use only    Version 20.070L 64BITS **
 *******************************************************************************
 ** Cite this program as: MOPAC2016, Version: 20.070L, James J. P. Stewart,   **
 ** Stewart Computational Chemistry, web: HTTP://OpenMOPAC.net. Days left: 322**
 *******************************************************************************
 **                                                                           **
 **                                MOPAC2016                                  **
 **                                                                           **
 *******************************************************************************

                              PM7 CALCULATION RESULTS

 *******************************************************************************
 *  CALCULATION DONE:                                Thu Apr 23 13:26:48 2020  *
 *  PM7        - The PM7 Hamiltonian to be used
 *  QMMM       - Generate energies and gradients for use in MM codes
 *  DIPOLE     - PRINT DIPOLE INSTEAD OF ENERGY IN TRAJECTORIES
 *  GEO-OK     - OVERRIDE INTERATOMIC DISTANCE AND OTHER SAFETY CHECKS
 *
 *
 *
 *                 CHARGE ON SYSTEM = 0
 *
 *
 *
 *  LET        - OVERRIDE SOME SAFETY CHECKS
 *  XYZ        - CARTESIAN COORDINATE SYSTEM TO BE USED
 *  FORCE      - FORCE CALCULATION SPECIFIED
 *  1SCF       - DO 1 SCF AND THEN STOP 
 *  T=         - A TIME OF      2.0 MINUTES REQUESTED
 *  DUMP=N     - RESTART FILE WRITTEN EVERY  7200.000 SECONDS
 *  CUTOFF=    - CUTOFF FOR NDDO AND DIPOLE INTERACTIONS =  9.00A
 *  AUX        - OUTPUT AUXILIARY INFORMATION
 *  GRADIENTS  - ALL GRADIENTS TO BE PRINTED
 *  VECTORS    - FINAL EIGENVECTORS TO BE PRINTED
 *  EIGEN      - CONVERT LMO's INTO EIGENVECTORS
 *  LARGE      - EXPANDED OUTPUT TO BE PRINTED
 *  AIGOUT     - IN ARC FILE, INCLUDE AB-INITIO GEOMETRY
 *  GRAPH      - GENERATE FILE FOR GRAPHICS
 *  LOCALIZE   - LOCALIZED ORBITALS TO BE PRINTED
 *  PI         - BONDS MATRIX, SPLIT INTO SIGMA-PI-DELL COMPONENTS, TO BE PRINTED
 *******************************************************************************
PM7 XYZ T=2M 1SCF LOCALIZE AIGOUT GRAPH GRAPHF LARGE DIPOLE PI FORCE CUTOFF=9.0 AUX LET GRAD QMMM GEO-OK EIGEN VECTORS CHARGE=0
 Test System

   ATOM   CHEMICAL          X               Y               Z
  NUMBER   SYMBOL      (ANGSTROMS)     (ANGSTROMS)     (ANGSTROMS)
 
     1       C          3.54423900  *   0.62606600  *   0.80267800  *
     2       O          3.30151300  *  -0.20879900  *   1.66901200  *
     3       N          4.78758300  *   0.74293400  *   0.28277500  *
     4       H          4.94802400  *   1.44514900  *  -0.44138100  *
     5       C          5.99683200  *   0.03287900  *   0.71835100  *
     6       H          6.02045000  *  -0.10187500  *   1.82933000  *
     7       C          6.06036900  *  -1.36907300  *   0.04764200  *
     8       H          5.04077600  *  -1.65285600  *  -0.24821000  *
     9       H          6.61067900  *  -1.35502900  *  -0.91984600  *
    10       C          6.66207400  *  -2.45729600  *   0.95775700  *
    11       C          5.79545700  *  -3.25189100  *   1.67020400  *
    12       H          4.71359600  *  -3.09492100  *   1.68096000  *
    13       C          6.33052500  *  -4.34560100  *   2.40590300  *
    14       H          5.66477300  *  -5.01182200  *   2.96035800  *
    15       C          7.69462600  *  -4.56204700  *   2.39744800  *
    16       H          8.12511500  *  -5.39790200  *   2.96469700  *
    17       C          7.98588500  *  -2.66092900  *   0.96204500  *
    18       H          8.68990400  *  -2.01162400  *   0.38454700  *
    19       C          8.54252000  *  -3.71101600  *   1.68487100  *
    20       H          9.62352500  *  -3.87218100  *   1.70870300  *
    21       O          6.56062600  *   4.12022900  *  -1.97648200  *
    22       H          5.66450600  *   4.04500000  *  -1.52404600  *
    23       H          7.03124300  *   3.36022500  *  -1.59559500  *
    24       O          3.14915600  *  -2.99089600  *   3.96391800  *
    25       H          2.19809300  *  -3.00857600  *   4.27696600  *
    26       H          3.21081100  *  -2.18921200  *   3.43130400  *
    27       O         11.35882400  *  -2.43120800  *   0.06977500  *
    28       H         12.22608100  *  -2.13374200  *  -0.29608300  *
    29       H         11.12152900  *  -1.62070100  *   0.65597300  *
    30       O          9.78395100  *  -1.48747600  *   3.57376900  *
    31       H         10.32232700  *  -2.27159500  *   3.40037200  *
    32       H         10.30557200  *  -0.80071100  *   3.05512200  *
    33       O         11.79098500  *  -5.00784600  *   0.71535600  *
    34       H         11.70238800  *  -4.06177000  *   0.45216900  *
    35       H         11.01486500  *  -5.43093400  *   0.27943500  *
    36       O          9.64834300  *  -3.24922300  *  -1.82985400  *
    37       H         10.29933200  *  -2.86826800  *  -1.19921800  *
    38       H          9.39175500  *  -2.51471400  *  -2.41026700  *
    39       O          4.46807800  *  -0.92350800  *  -3.70043900  *
    40       H          4.67134000  *  -0.19989400  *  -3.09682900  *
    41       H          3.54325500  *  -0.65249500  *  -4.01502200  *
    42       O          7.00970200  *  -6.49863800  *  -0.13375600  *
    43       H          7.95307300  *  -6.55488000  *  -0.45835100  *
    44       H          7.07170900  *  -5.72239600  *   0.44212600  *
    45       O          7.13208200  *  -0.28154500  *   3.89904600  *
    46       H          8.02425500  *  -0.63741700  *   3.84696000  *
    47       H          6.57699900  *  -1.02646700  *   4.27776200  *
    48       O          4.60363400  *   1.34584000  *   4.70257400  *
    49       H          4.74286900  *   2.16980700  *   4.16228900  *
    50       H          5.32064400  *   0.78284200  *   4.42077800  *
    51       O          6.22222200  *  -2.96869100  *  -3.53656700  *
    52       H          7.06727100  *  -2.45054700  *  -3.65694500  *
    53       H          5.55891400  *  -2.28449800  *  -3.46414800  *
    54       O          4.69733500  *   1.94497000  *  -3.05603300  *
    55       H          5.24306700  *   2.62525400  *  -3.46056700  *
    56       H          4.27273400  *   2.49079500  *  -2.29697000  *
    57       O          1.90961800  *   0.43707400  *   3.91399800  *
    58       H          2.48193300  *   0.37126000  *   3.15782800  *
    59       H          2.46674100  *   0.92232900  *   4.56848500  *
    60       O         11.78751900  *  -3.82969300  *   3.13975700  *
    61       H         12.57731000  *  -3.26031300  *   3.04308900  *
    62       H         11.76612600  *  -4.37526400  *   2.34205100  *
    63       O          3.97520200  *  -5.53921900  *   5.01551700  *
    64       H          3.87972100  *  -4.83607800  *   4.36503400  *
    65       H          4.63648300  *  -5.17081000  *   5.66302000  *
    66       O          8.25256100  *  -6.74734500  *   5.97740700  *
    67       H          7.85605800  *  -5.99526200  *   5.51441900  *
    68       H          7.88154500  *  -6.67906100  *   6.88591600  *
    69       H          2.77526600  *   1.28092200  *   0.39287000  *
    70       H          6.84109500  *   0.64992700  *   0.41082700  *
 


          CARTESIAN COORDINATES 

    NO.       ATOM           X           Y           Z

     1         C          3.5442      0.6261      0.8027
     2         O          3.3015     -0.2088      1.6690
     3         N          4.7876      0.7429      0.2828
     4         H          4.9480      1.4451     -0.4414
     5         C          5.9968      0.0329      0.7184
     6         H          6.0205     -0.1019      1.8293
     7         C          6.0604     -1.3691      0.0476
     8         H          5.0408     -1.6529     -0.2482
     9         H          6.6107     -1.3550     -0.9198
    10         C          6.6621     -2.4573      0.9578
    11         C          5.7955     -3.2519      1.6702
    12         H          4.7136     -3.0949      1.6810
    13         C          6.3305     -4.3456      2.4059
    14         H          5.6648     -5.0118      2.9604
    15         C          7.6946     -4.5620      2.3974
    16         H          8.1251     -5.3979      2.9647
    17         C          7.9859     -2.6609      0.9620
    18         H          8.6899     -2.0116      0.3845
    19         C          8.5425     -3.7110      1.6849
    20         H          9.6235     -3.8722      1.7087
    21         O          6.5606      4.1202     -1.9765
    22         H          5.6645      4.0450     -1.5240
    23         H          7.0312      3.3602     -1.5956
    24         O          3.1492     -2.9909      3.9639
    25         H          2.1981     -3.0086      4.2770
    26         H          3.2108     -2.1892      3.4313
    27         O         11.3588     -2.4312      0.0698
    28         H         12.2261     -2.1337     -0.2961
    29         H         11.1215     -1.6207      0.6560
    30         O          9.7840     -1.4875      3.5738
    31         H         10.3223     -2.2716      3.4004
    32         H         10.3056     -0.8007      3.0551
    33         O         11.7910     -5.0078      0.7154
    34         H         11.7024     -4.0618      0.4522
    35         H         11.0149     -5.4309      0.2794
    36         O          9.6483     -3.2492     -1.8299
    37         H         10.2993     -2.8683     -1.1992
    38         H          9.3918     -2.5147     -2.4103
    39         O          4.4681     -0.9235     -3.7004
    40         H          4.6713     -0.1999     -3.0968
    41         H          3.5433     -0.6525     -4.0150
    42         O          7.0097     -6.4986     -0.1338
    43         H          7.9531     -6.5549     -0.4584
    44         H          7.0717     -5.7224      0.4421
    45         O          7.1321     -0.2815      3.8990
    46         H          8.0243     -0.6374      3.8470
    47         H          6.5770     -1.0265      4.2778
    48         O          4.6036      1.3458      4.7026
    49         H          4.7429      2.1698      4.1623
    50         H          5.3206      0.7828      4.4208
    51         O          6.2222     -2.9687     -3.5366
    52         H          7.0673     -2.4505     -3.6569
    53         H          5.5589     -2.2845     -3.4641
    54         O          4.6973      1.9450     -3.0560
    55         H          5.2431      2.6253     -3.4606
    56         H          4.2727      2.4908     -2.2970
    57         O          1.9096      0.4371      3.9140
    58         H          2.4819      0.3713      3.1578
    59         H          2.4667      0.9223      4.5685
    60         O         11.7875     -3.8297      3.1398
    61         H         12.5773     -3.2603      3.0431
    62         H         11.7661     -4.3753      2.3421
    63         O          3.9752     -5.5392      5.0155
    64         H          3.8797     -4.8361      4.3650
    65         H          4.6365     -5.1708      5.6630
    66         O          8.2526     -6.7473      5.9774
    67         H          7.8561     -5.9953      5.5144
    68         H          7.8815     -6.6791      6.8859
    69         H          2.7753      1.2809      0.3929
    70         H          6.8411      0.6499      0.4108

 General Reference for PM7:
 "Optimization of Parameters for Semiempirical Methods VI: More Modifications to the 
 NDDO Approximations and Re-optimization of Parameters", J. J. P. Stewart, J. Mol. Mod., 1:32, 19 (2013)
 http://www.springerlink.com/openurl.asp?genre=article&id=doi:10.1007/s00894-012-1667-x

           Empirical Formula: C9 H43 N O17  =    70 atoms



      MOLECULAR POINT GROUP   :   C1  


      RHF CALCULATION, NO. OF DOUBLY OCCUPIED LEVELS = 93


 -------------------------------------------------------------------------------
 PM7 XYZ T=2M 1SCF LOCALIZE AIGOUT GRAPH GRAPHF LARGE DIPOLE PI FORCE CUTOFF=9.0 AUX LET GRAD QMMM GEO-OK EIGEN VECTORS CHARGE=0
 Test System



     1SCF WAS SPECIFIED, SO BFGS WAS NOT USED                 
     SCF FIELD WAS ACHIEVED                                   


                              PM7 CALCULATION
                                                       MOPAC2016 (Version: 20.070L)
                                                       Thu Apr 23 13:26:48 2020
                                                       No. of days remaining = 322




          FINAL HEAT OF FORMATION =      -1288.85176 KCAL/MOL =   -5392.55576 KJ/MOL


          TOTAL ENERGY            =      -6910.66951 EV
          ELECTRONIC ENERGY       =     -53174.25894 EV  POINT GROUP:     C1  
          CORE-CORE REPULSION     =      46263.58943 EV
          COSMO AREA              =        530.04 SQUARE ANGSTROMS
          COSMO VOLUME            =        671.78 CUBIC ANGSTROMS

          GRADIENT NORM           =        234.73225 = 28.05587 PER ATOM
          IONIZATION POTENTIAL    =          8.986008 EV
          HOMO LUMO ENERGIES (EV) =         -8.986  0.789
          NO. OF FILLED LEVELS    =         93
          MOLECULAR WEIGHT        =        437.4352

          MOLECULAR DIMENSIONS (Angstroms)

            Atom       Atom       Distance
            H    68    H    55    14.16268
            O    57    H    28    11.42265
            H    49    O    42     7.76193


          SCF CALCULATIONS        =          1
 
          WALL-CLOCK TIME         =          0.188 SECONDS
          COMPUTATION TIME        =          0.185 SECONDS

          LARGEST ATOMIC GRADIENTS

          Atom     Label                     Cartesian Gradients           Cartesian Coordinates       |Gradient|
                                           X          Y          Z        X          Y          Z

            10       C                  77.174    -50.904     35.870    6.66207   -2.45730    0.95776     99.165
            17       C                 -92.069     -1.018      8.051    7.98588   -2.66093    0.96205     92.426
            11       C                   6.309     41.954    -31.975    5.79546   -3.25189    1.67020     53.126
            54       O                  10.299    -31.193    -37.905    4.69733    1.94497   -3.05603     50.159
            21       O                  28.297     25.218    -22.712    6.56063    4.12023   -1.97648     44.187
            30       O                 -28.484    -20.275     24.630    9.78395   -1.48748    3.57377     42.767
            27       O                 -14.749    -38.663    -10.738   11.35882   -2.43121    0.06978     42.751
            42       O                 -34.856     -6.923      0.565    7.00970   -6.49864   -0.13376     35.542
            56       H                  -3.395     21.446     28.016    4.27273    2.49079   -2.29697     35.445
            51       O                 -22.849    -25.993      1.060    6.22222   -2.96869   -3.53657     34.624



       FINAL  POINT  AND  DERIVATIVES

   PARAMETER     ATOM    TYPE            VALUE        GRADIENT
      1          1  C    CARTESIAN X     3.544239      4.617073  KCAL/ANGSTROM
      2          1  C    CARTESIAN Y     0.626066     25.150192  KCAL/ANGSTROM
      3          1  C    CARTESIAN Z     0.802678    -17.320275  KCAL/ANGSTROM
      4          2  O    CARTESIAN X     3.301513      1.258532  KCAL/ANGSTROM
      5          2  O    CARTESIAN Y    -0.208799    -10.736467  KCAL/ANGSTROM
      6          2  O    CARTESIAN Z     1.669012     -6.686833  KCAL/ANGSTROM
      7          3  N    CARTESIAN X     4.787583    -15.877978  KCAL/ANGSTROM
      8          3  N    CARTESIAN Y     0.742934    -25.304289  KCAL/ANGSTROM
      9          3  N    CARTESIAN Z     0.282775     14.234596  KCAL/ANGSTROM
     10          4  H    CARTESIAN X     4.948024     -2.537678  KCAL/ANGSTROM
     11          4  H    CARTESIAN Y     1.445149      9.672933  KCAL/ANGSTROM
     12          4  H    CARTESIAN Z    -0.441381      0.962796  KCAL/ANGSTROM
     13          5  C    CARTESIAN X     5.996832     13.674664  KCAL/ANGSTROM
     14          5  C    CARTESIAN Y     0.032879     19.441409  KCAL/ANGSTROM
     15          5  C    CARTESIAN Z     0.718351      0.364417  KCAL/ANGSTROM
     16          6  H    CARTESIAN X     6.020450      2.248951  KCAL/ANGSTROM
     17          6  H    CARTESIAN Y    -0.101875     -1.029583  KCAL/ANGSTROM
     18          6  H    CARTESIAN Z     1.829330      1.818759  KCAL/ANGSTROM
     19          7  C    CARTESIAN X     6.060369    -11.479258  KCAL/ANGSTROM
     20          7  C    CARTESIAN Y    -1.369073      4.172132  KCAL/ANGSTROM
     21          7  C    CARTESIAN Z     0.047642     -8.883636  KCAL/ANGSTROM
     22          8  H    CARTESIAN X     5.040776      5.870668  KCAL/ANGSTROM
     23          8  H    CARTESIAN Y    -1.652856      7.073082  KCAL/ANGSTROM
     24          8  H    CARTESIAN Z    -0.248210     -0.106845  KCAL/ANGSTROM
     25          9  H    CARTESIAN X     6.610679      0.818792  KCAL/ANGSTROM
     26          9  H    CARTESIAN Y    -1.355029     -1.393985  KCAL/ANGSTROM
     27          9  H    CARTESIAN Z    -0.919846     -6.588361  KCAL/ANGSTROM
     28         10  C    CARTESIAN X     6.662074     77.173526  KCAL/ANGSTROM
     29         10  C    CARTESIAN Y    -2.457296    -50.904229  KCAL/ANGSTROM
     30         10  C    CARTESIAN Z     0.957757     35.870281  KCAL/ANGSTROM
     31         11  C    CARTESIAN X     5.795457      6.309421  KCAL/ANGSTROM
     32         11  C    CARTESIAN Y    -3.251891     41.954108  KCAL/ANGSTROM
     33         11  C    CARTESIAN Z     1.670204    -31.974999  KCAL/ANGSTROM
     34         12  H    CARTESIAN X     4.713596     -3.473695  KCAL/ANGSTROM
     35         12  H    CARTESIAN Y    -3.094921     -1.160665  KCAL/ANGSTROM
     36         12  H    CARTESIAN Z     1.680960      0.953439  KCAL/ANGSTROM
     37         13  C    CARTESIAN X     6.330525     22.224479  KCAL/ANGSTROM
     38         13  C    CARTESIAN Y    -4.345601    -22.385375  KCAL/ANGSTROM
     39         13  C    CARTESIAN Z     2.405903     11.971990  KCAL/ANGSTROM
     40         14  H    CARTESIAN X     5.664773      0.425993  KCAL/ANGSTROM
     41         14  H    CARTESIAN Y    -5.011822     -2.339776  KCAL/ANGSTROM
     42         14  H    CARTESIAN Z     2.960358      2.162523  KCAL/ANGSTROM
     43         15  C    CARTESIAN X     7.694626    -17.367827  KCAL/ANGSTROM
     44         15  C    CARTESIAN Y    -4.562047      5.755275  KCAL/ANGSTROM
     45         15  C    CARTESIAN Z     2.397448     -5.246117  KCAL/ANGSTROM
     46         16  H    CARTESIAN X     8.125115      2.128830  KCAL/ANGSTROM
     47         16  H    CARTESIAN Y    -5.397902     -2.581306  KCAL/ANGSTROM
     48         16  H    CARTESIAN Z     2.964697      2.195781  KCAL/ANGSTROM
     49         17  C    CARTESIAN X     7.985885    -92.068646  KCAL/ANGSTROM
     50         17  C    CARTESIAN Y    -2.660929     -1.018373  KCAL/ANGSTROM
     51         17  C    CARTESIAN Z     0.962045      8.050724  KCAL/ANGSTROM
     52         18  H    CARTESIAN X     8.689904     12.336252  KCAL/ANGSTROM
     53         18  H    CARTESIAN Y    -2.011624      7.599737  KCAL/ANGSTROM
     54         18  H    CARTESIAN Z     0.384547     -4.737677  KCAL/ANGSTROM
     55         19  C    CARTESIAN X     8.542520     -1.115946  KCAL/ANGSTROM
     56         19  C    CARTESIAN Y    -3.711016      6.524849  KCAL/ANGSTROM
     57         19  C    CARTESIAN Z     1.684871     -6.267194  KCAL/ANGSTROM
     58         20  H    CARTESIAN X     9.623525      3.014887  KCAL/ANGSTROM
     59         20  H    CARTESIAN Y    -3.872181      0.165174  KCAL/ANGSTROM
     60         20  H    CARTESIAN Z     1.708703      0.225376  KCAL/ANGSTROM
     61         21  O    CARTESIAN X     6.560626     28.297300  KCAL/ANGSTROM
     62         21  O    CARTESIAN Y     4.120229     25.217544  KCAL/ANGSTROM
     63         21  O    CARTESIAN Z    -1.976482    -22.712165  KCAL/ANGSTROM
     64         22  H    CARTESIAN X     5.664506    -22.089652  KCAL/ANGSTROM
     65         22  H    CARTESIAN Y     4.045000    -14.439869  KCAL/ANGSTROM
     66         22  H    CARTESIAN Z    -1.524046     12.511567  KCAL/ANGSTROM
     67         23  H    CARTESIAN X     7.031243     -6.410428  KCAL/ANGSTROM
     68         23  H    CARTESIAN Y     3.360225    -11.072701  KCAL/ANGSTROM
     69         23  H    CARTESIAN Z    -1.595595      9.222321  KCAL/ANGSTROM
     70         24  O    CARTESIAN X     3.149156     19.708703  KCAL/ANGSTROM
     71         24  O    CARTESIAN Y    -2.990896     -6.353292  KCAL/ANGSTROM
     72         24  O    CARTESIAN Z     3.963918     -4.169118  KCAL/ANGSTROM
     73         25  H    CARTESIAN X     2.198093    -21.413588  KCAL/ANGSTROM
     74         25  H    CARTESIAN Y    -3.008576      1.199858  KCAL/ANGSTROM
     75         25  H    CARTESIAN Z     4.276966      5.722743  KCAL/ANGSTROM
     76         26  H    CARTESIAN X     3.210811     -0.806232  KCAL/ANGSTROM
     77         26  H    CARTESIAN Y    -2.189212      2.799469  KCAL/ANGSTROM
     78         26  H    CARTESIAN Z     3.431304     -0.466814  KCAL/ANGSTROM
     79         27  O    CARTESIAN X    11.358824    -14.748947  KCAL/ANGSTROM
     80         27  O    CARTESIAN Y    -2.431208    -38.662915  KCAL/ANGSTROM
     81         27  O    CARTESIAN Z     0.069775    -10.737696  KCAL/ANGSTROM
     82         28  H    CARTESIAN X    12.226081      8.939678  KCAL/ANGSTROM
     83         28  H    CARTESIAN Y    -2.133742     11.755216  KCAL/ANGSTROM
     84         28  H    CARTESIAN Z    -0.296083      2.253094  KCAL/ANGSTROM
     85         29  H    CARTESIAN X    11.121529      2.546271  KCAL/ANGSTROM
     86         29  H    CARTESIAN Y    -1.620701     28.370721  KCAL/ANGSTROM
     87         29  H    CARTESIAN Z     0.655973     12.536747  KCAL/ANGSTROM
     88         30  O    CARTESIAN X     9.783951    -28.484095  KCAL/ANGSTROM
     89         30  O    CARTESIAN Y    -1.487476    -20.274592  KCAL/ANGSTROM
     90         30  O    CARTESIAN Z     3.573769     24.630251  KCAL/ANGSTROM
     91         31  H    CARTESIAN X    10.322327      9.680611  KCAL/ANGSTROM
     92         31  H    CARTESIAN Y    -2.271595     10.679667  KCAL/ANGSTROM
     93         31  H    CARTESIAN Z     3.400372     -9.160681  KCAL/ANGSTROM
     94         32  H    CARTESIAN X    10.305572     18.909151  KCAL/ANGSTROM
     95         32  H    CARTESIAN Y    -0.800711     10.739441  KCAL/ANGSTROM
     96         32  H    CARTESIAN Z     3.055122    -19.472437  KCAL/ANGSTROM
     97         33  O    CARTESIAN X    11.790985     15.056775  KCAL/ANGSTROM
     98         33  O    CARTESIAN Y    -5.007846    -16.317556  KCAL/ANGSTROM
     99         33  O    CARTESIAN Z     0.715356      6.263288  KCAL/ANGSTROM
    100         34  H    CARTESIAN X    11.702388      0.153130  KCAL/ANGSTROM
    101         34  H    CARTESIAN Y    -4.061770      9.085058  KCAL/ANGSTROM
    102         34  H    CARTESIAN Z     0.452169      0.551437  KCAL/ANGSTROM
    103         35  H    CARTESIAN X    11.014865    -11.724101  KCAL/ANGSTROM
    104         35  H    CARTESIAN Y    -5.430934     -0.975047  KCAL/ANGSTROM
    105         35  H    CARTESIAN Z     0.279435     -8.142042  KCAL/ANGSTROM
    106         36  O    CARTESIAN X     9.648343    -10.014875  KCAL/ANGSTROM
    107         36  O    CARTESIAN Y    -3.249223    -24.311278  KCAL/ANGSTROM
    108         36  O    CARTESIAN Z    -1.829854      1.031203  KCAL/ANGSTROM
    109         37  H    CARTESIAN X    10.299332      7.669139  KCAL/ANGSTROM
    110         37  H    CARTESIAN Y    -2.868268     12.117349  KCAL/ANGSTROM
    111         37  H    CARTESIAN Z    -1.199218      2.116998  KCAL/ANGSTROM
    112         38  H    CARTESIAN X     9.391755      0.682032  KCAL/ANGSTROM
    113         38  H    CARTESIAN Y    -2.514714     14.249670  KCAL/ANGSTROM
    114         38  H    CARTESIAN Z    -2.410267     -6.159878  KCAL/ANGSTROM
    115         39  O    CARTESIAN X     4.468078     25.003866  KCAL/ANGSTROM
    116         39  O    CARTESIAN Y    -0.923508    -20.103926  KCAL/ANGSTROM
    117         39  O    CARTESIAN Z    -3.700439     -0.806878  KCAL/ANGSTROM
    118         40  H    CARTESIAN X     4.671340     -5.466678  KCAL/ANGSTROM
    119         40  H    CARTESIAN Y    -0.199894      2.935372  KCAL/ANGSTROM
    120         40  H    CARTESIAN Z    -3.096829      3.114648  KCAL/ANGSTROM
    121         41  H    CARTESIAN X     3.543255    -24.843067  KCAL/ANGSTROM
    122         41  H    CARTESIAN Y    -0.652495     15.789284  KCAL/ANGSTROM
    123         41  H    CARTESIAN Z    -4.015022     -2.729237  KCAL/ANGSTROM
    124         42  O    CARTESIAN X     7.009702    -34.856210  KCAL/ANGSTROM
    125         42  O    CARTESIAN Y    -6.498638     -6.923034  KCAL/ANGSTROM
    126         42  O    CARTESIAN Z    -0.133756      0.564718  KCAL/ANGSTROM
    127         43  H    CARTESIAN X     7.953073     24.056327  KCAL/ANGSTROM
    128         43  H    CARTESIAN Y    -6.554880      4.219584  KCAL/ANGSTROM
    129         43  H    CARTESIAN Z    -0.458351     -0.554641  KCAL/ANGSTROM
    130         44  H    CARTESIAN X     7.071709     12.135561  KCAL/ANGSTROM
    131         44  H    CARTESIAN Y    -5.722396      2.146937  KCAL/ANGSTROM
    132         44  H    CARTESIAN Z     0.442126      1.049219  KCAL/ANGSTROM
    133         45  O    CARTESIAN X     7.132082     12.245037  KCAL/ANGSTROM
    134         45  O    CARTESIAN Y    -0.281545     17.330118  KCAL/ANGSTROM
    135         45  O    CARTESIAN Z     3.899046     -7.448032  KCAL/ANGSTROM
    136         46  H    CARTESIAN X     8.024255      2.857923  KCAL/ANGSTROM
    137         46  H    CARTESIAN Y    -0.637417     -0.862889  KCAL/ANGSTROM
    138         46  H    CARTESIAN Z     3.846960      0.497375  KCAL/ANGSTROM
    139         47  H    CARTESIAN X     6.576999    -12.438442  KCAL/ANGSTROM
    140         47  H    CARTESIAN Y    -1.026467    -13.411998  KCAL/ANGSTROM
    141         47  H    CARTESIAN Z     4.277762      9.498804  KCAL/ANGSTROM
    142         48  O    CARTESIAN X     4.603634     -0.999128  KCAL/ANGSTROM
    143         48  O    CARTESIAN Y     1.345840    -21.970409  KCAL/ANGSTROM
    144         48  O    CARTESIAN Z     4.702574     15.579636  KCAL/ANGSTROM
    145         49  H    CARTESIAN X     4.742869      3.971998  KCAL/ANGSTROM
    146         49  H    CARTESIAN Y     2.169807     16.097237  KCAL/ANGSTROM
    147         49  H    CARTESIAN Z     4.162289    -13.532960  KCAL/ANGSTROM
    148         50  H    CARTESIAN X     5.320644     -2.244134  KCAL/ANGSTROM
    149         50  H    CARTESIAN Y     0.782842      3.259199  KCAL/ANGSTROM
    150         50  H    CARTESIAN Z     4.420778     -2.766817  KCAL/ANGSTROM
    151         51  O    CARTESIAN X     6.222222    -22.849352  KCAL/ANGSTROM
    152         51  O    CARTESIAN Y    -2.968691    -25.993012  KCAL/ANGSTROM
    153         51  O    CARTESIAN Z    -3.536567      1.059679  KCAL/ANGSTROM
    154         52  H    CARTESIAN X     7.067271     20.929265  KCAL/ANGSTROM
    155         52  H    CARTESIAN Y    -2.450547     20.013056  KCAL/ANGSTROM
    156         52  H    CARTESIAN Z    -3.656945     -2.006666  KCAL/ANGSTROM
    157         53  H    CARTESIAN X     5.558914      6.686664  KCAL/ANGSTROM
    158         53  H    CARTESIAN Y    -2.284498      5.575169  KCAL/ANGSTROM
    159         53  H    CARTESIAN Z    -3.464148      3.678777  KCAL/ANGSTROM
    160         54  O    CARTESIAN X     4.697335     10.298791  KCAL/ANGSTROM
    161         54  O    CARTESIAN Y     1.944970    -31.193427  KCAL/ANGSTROM
    162         54  O    CARTESIAN Z    -3.056033    -37.905396  KCAL/ANGSTROM
    163         55  H    CARTESIAN X     5.243067     -4.683674  KCAL/ANGSTROM
    164         55  H    CARTESIAN Y     2.625254      8.457359  KCAL/ANGSTROM
    165         55  H    CARTESIAN Z    -3.460567      8.441629  KCAL/ANGSTROM
    166         56  H    CARTESIAN X     4.272734     -3.394911  KCAL/ANGSTROM
    167         56  H    CARTESIAN Y     2.490795     21.446275  KCAL/ANGSTROM
    168         56  H    CARTESIAN Z    -2.296970     28.015693  KCAL/ANGSTROM
    169         57  O    CARTESIAN X     1.909618    -15.111928  KCAL/ANGSTROM
    170         57  O    CARTESIAN Y     0.437074    -13.706511  KCAL/ANGSTROM
    171         57  O    CARTESIAN Z     3.913998     -7.632268  KCAL/ANGSTROM
    172         58  H    CARTESIAN X     2.481933      2.446594  KCAL/ANGSTROM
    173         58  H    CARTESIAN Y     0.371260     10.066151  KCAL/ANGSTROM
    174         58  H    CARTESIAN Z     3.157828      8.600662  KCAL/ANGSTROM
    175         59  H    CARTESIAN X     2.466741      7.554497  KCAL/ANGSTROM
    176         59  H    CARTESIAN Y     0.922329     11.050203  KCAL/ANGSTROM
    177         59  H    CARTESIAN Z     4.568485      6.505567  KCAL/ANGSTROM
    178         60  O    CARTESIAN X    11.787519    -10.235116  KCAL/ANGSTROM
    179         60  O    CARTESIAN Y    -3.829693    -19.149658  KCAL/ANGSTROM
    180         60  O    CARTESIAN Z     3.139757     11.129364  KCAL/ANGSTROM
    181         61  H    CARTESIAN X    12.577310      9.536883  KCAL/ANGSTROM
    182         61  H    CARTESIAN Y    -3.260313     14.237804  KCAL/ANGSTROM
    183         61  H    CARTESIAN Z     3.043089     -5.902879  KCAL/ANGSTROM
    184         62  H    CARTESIAN X    11.766126      0.691966  KCAL/ANGSTROM
    185         62  H    CARTESIAN Y    -4.375264      6.338353  KCAL/ANGSTROM
    186         62  H    CARTESIAN Z     2.342051     -2.674735  KCAL/ANGSTROM
    187         63  O    CARTESIAN X     3.975202    -21.160981  KCAL/ANGSTROM
    188         63  O    CARTESIAN Y    -5.539219    -13.342016  KCAL/ANGSTROM
    189         63  O    CARTESIAN Z     5.015517    -12.045741  KCAL/ANGSTROM
    190         64  H    CARTESIAN X     3.879721      5.591644  KCAL/ANGSTROM
    191         64  H    CARTESIAN Y    -4.836078      1.507508  KCAL/ANGSTROM
    192         64  H    CARTESIAN Z     4.365034     -0.758922  KCAL/ANGSTROM
    193         65  H    CARTESIAN X     4.636483     17.502316  KCAL/ANGSTROM
    194         65  H    CARTESIAN Y    -5.170810      9.347348  KCAL/ANGSTROM
    195         65  H    CARTESIAN Z     5.663020     13.538431  KCAL/ANGSTROM
    196         66  O    CARTESIAN X     8.252561     14.841480  KCAL/ANGSTROM
    197         66  O    CARTESIAN Y    -6.747345    -15.041502  KCAL/ANGSTROM
    198         66  O    CARTESIAN Z     5.977407    -14.339238  KCAL/ANGSTROM
    199         67  H    CARTESIAN X     7.856058     -6.462223  KCAL/ANGSTROM
    200         67  H    CARTESIAN Y    -5.995262      8.541606  KCAL/ANGSTROM
    201         67  H    CARTESIAN Z     5.514419      2.295564  KCAL/ANGSTROM
    202         68  H    CARTESIAN X     7.881545     -8.658010  KCAL/ANGSTROM
    203         68  H    CARTESIAN Y    -6.679061      6.757944  KCAL/ANGSTROM
    204         68  H    CARTESIAN Z     6.885916     12.416620  KCAL/ANGSTROM
    205         69  H    CARTESIAN X     2.775266      9.268712  KCAL/ANGSTROM
    206         69  H    CARTESIAN Y     1.280922     -3.302196  KCAL/ANGSTROM
    207         69  H    CARTESIAN Z     0.392870      0.251355  KCAL/ANGSTROM
    208         70  H    CARTESIAN X     6.841095    -16.339695  KCAL/ANGSTROM
    209         70  H    CARTESIAN Y     0.649927     -2.560347  KCAL/ANGSTROM
    210         70  H    CARTESIAN Z     0.410827     -1.932966  KCAL/ANGSTROM




   ATOM   CHEMICAL          X               Y               Z
  NUMBER   SYMBOL      (ANGSTROMS)     (ANGSTROMS)     (ANGSTROMS)
 
     1       C          3.54423900  *   0.62606600  *   0.80267800  *
     2       O          3.30151300  *  -0.20879900  *   1.66901200  *
     3       N          4.78758300  *   0.74293400  *   0.28277500  *
     4       H          4.94802400  *   1.44514900  *  -0.44138100  *
     5       C          5.99683200  *   0.03287900  *   0.71835100  *
     6       H          6.02045000  *  -0.10187500  *   1.82933000  *
     7       C          6.06036900  *  -1.36907300  *   0.04764200  *
     8       H          5.04077600  *  -1.65285600  *  -0.24821000  *
     9       H          6.61067900  *  -1.35502900  *  -0.91984600  *
    10       C          6.66207400  *  -2.45729600  *   0.95775700  *
    11       C          5.79545700  *  -3.25189100  *   1.67020400  *
    12       H          4.71359600  *  -3.09492100  *   1.68096000  *
    13       C          6.33052500  *  -4.34560100  *   2.40590300  *
    14       H          5.66477300  *  -5.01182200  *   2.96035800  *
    15       C          7.69462600  *  -4.56204700  *   2.39744800  *
    16       H          8.12511500  *  -5.39790200  *   2.96469700  *
    17       C          7.98588500  *  -2.66092900  *   0.96204500  *
    18       H          8.68990400  *  -2.01162400  *   0.38454700  *
    19       C          8.54252000  *  -3.71101600  *   1.68487100  *
    20       H          9.62352500  *  -3.87218100  *   1.70870300  *
    21       O          6.56062600  *   4.12022900  *  -1.97648200  *
    22       H          5.66450600  *   4.04500000  *  -1.52404600  *
    23       H          7.03124300  *   3.36022500  *  -1.59559500  *
    24       O          3.14915600  *  -2.99089600  *   3.96391800  *
    25       H          2.19809300  *  -3.00857600  *   4.27696600  *
    26       H          3.21081100  *  -2.18921200  *   3.43130400  *
    27       O         11.35882400  *  -2.43120800  *   0.06977500  *
    28       H         12.22608100  *  -2.13374200  *  -0.29608300  *
    29       H         11.12152900  *  -1.62070100  *   0.65597300  *
    30       O          9.78395100  *  -1.48747600  *   3.57376900  *
    31       H         10.32232700  *  -2.27159500  *   3.40037200  *
    32       H         10.30557200  *  -0.80071100  *   3.05512200  *
    33       O         11.79098500  *  -5.00784600  *   0.71535600  *
    34       H         11.70238800  *  -4.06177000  *   0.45216900  *
    35       H         11.01486500  *  -5.43093400  *   0.27943500  *
    36       O          9.64834300  *  -3.24922300  *  -1.82985400  *
    37       H         10.29933200  *  -2.86826800  *  -1.19921800  *
    38       H          9.39175500  *  -2.51471400  *  -2.41026700  *
    39       O          4.46807800  *  -0.92350800  *  -3.70043900  *
    40       H          4.67134000  *  -0.19989400  *  -3.09682900  *
    41       H          3.54325500  *  -0.65249500  *  -4.01502200  *
    42       O          7.00970200  *  -6.49863800  *  -0.13375600  *
    43       H          7.95307300  *  -6.55488000  *  -0.45835100  *
    44       H          7.07170900  *  -5.72239600  *   0.44212600  *
    45       O          7.13208200  *  -0.28154500  *   3.89904600  *
    46       H          8.02425500  *  -0.63741700  *   3.84696000  *
    47       H          6.57699900  *  -1.02646700  *   4.27776200  *
    48       O          4.60363400  *   1.34584000  *   4.70257400  *
    49       H          4.74286900  *   2.16980700  *   4.16228900  *
    50       H          5.32064400  *   0.78284200  *   4.42077800  *
    51       O          6.22222200  *  -2.96869100  *  -3.53656700  *
    52       H          7.06727100  *  -2.45054700  *  -3.65694500  *
    53       H          5.55891400  *  -2.28449800  *  -3.46414800  *
    54       O          4.69733500  *   1.94497000  *  -3.05603300  *
    55       H          5.24306700  *   2.62525400  *  -3.46056700  *
    56       H          4.27273400  *   2.49079500  *  -2.29697000  *
    57       O          1.90961800  *   0.43707400  *   3.91399800  *
    58       H          2.48193300  *   0.37126000  *   3.15782800  *
    59       H          2.46674100  *   0.92232900  *   4.56848500  *
    60       O         11.78751900  *  -3.82969300  *   3.13975700  *
    61       H         12.57731000  *  -3.26031300  *   3.04308900  *
    62       H         11.76612600  *  -4.37526400  *   2.34205100  *
    63       O          3.97520200  *  -5.53921900  *   5.01551700  *
    64       H          3.87972100  *  -4.83607800  *   4.36503400  *
    65       H          4.63648300  *  -5.17081000  *   5.66302000  *
    66       O          8.25256100  *  -6.74734500  *   5.97740700  *
    67       H          7.85605800  *  -5.99526200  *   5.51441900  *
    68       H          7.88154500  *  -6.67906100  *   6.88591600  *
    69       H          2.77526600  *   1.28092200  *   0.39287000  *
    70       H          6.84109500  *   0.64992700  *   0.41082700  *

                             CARTESIAN COORDINATES

   1    C        3.544239000     0.626066000     0.802678000
   2    O        3.301513000    -0.208799000     1.669012000
   3    N        4.787583000     0.742934000     0.282775000
   4    H        4.948024000     1.445149000    -0.441381000
   5    C        5.996832000     0.032879000     0.718351000
   6    H        6.020450000    -0.101875000     1.829330000
   7    C        6.060369000    -1.369073000     0.047642000
   8    H        5.040776000    -1.652856000    -0.248210000
   9    H        6.610679000    -1.355029000    -0.919846000
  10    C        6.662074000    -2.457296000     0.957757000
  11    C        5.795457000    -3.251891000     1.670204000
  12    H        4.713596000    -3.094921000     1.680960000
  13    C        6.330525000    -4.345601000     2.405903000
  14    H        5.664773000    -5.011822000     2.960358000
  15    C        7.694626000    -4.562047000     2.397448000
  16    H        8.125115000    -5.397902000     2.964697000
  17    C        7.985885000    -2.660929000     0.962045000
  18    H        8.689904000    -2.011624000     0.384547000
  19    C        8.542520000    -3.711016000     1.684871000
  20    H        9.623525000    -3.872181000     1.708703000
  21    O        6.560626000     4.120229000    -1.976482000
  22    H        5.664506000     4.045000000    -1.524046000
  23    H        7.031243000     3.360225000    -1.595595000
  24    O        3.149156000    -2.990896000     3.963918000
  25    H        2.198093000    -3.008576000     4.276966000
  26    H        3.210811000    -2.189212000     3.431304000
  27    O       11.358824000    -2.431208000     0.069775000
  28    H       12.226081000    -2.133742000    -0.296083000
  29    H       11.121529000    -1.620701000     0.655973000
  30    O        9.783951000    -1.487476000     3.573769000
  31    H       10.322327000    -2.271595000     3.400372000
  32    H       10.305572000    -0.800711000     3.055122000
  33    O       11.790985000    -5.007846000     0.715356000
  34    H       11.702388000    -4.061770000     0.452169000
  35    H       11.014865000    -5.430934000     0.279435000
  36    O        9.648343000    -3.249223000    -1.829854000
  37    H       10.299332000    -2.868268000    -1.199218000
  38    H        9.391755000    -2.514714000    -2.410267000
  39    O        4.468078000    -0.923508000    -3.700439000
  40    H        4.671340000    -0.199894000    -3.096829000
  41    H        3.543255000    -0.652495000    -4.015022000
  42    O        7.009702000    -6.498638000    -0.133756000
  43    H        7.953073000    -6.554880000    -0.458351000
  44    H        7.071709000    -5.722396000     0.442126000
  45    O        7.132082000    -0.281545000     3.899046000
  46    H        8.024255000    -0.637417000     3.846960000
  47    H        6.576999000    -1.026467000     4.277762000
  48    O        4.603634000     1.345840000     4.702574000
  49    H        4.742869000     2.169807000     4.162289000
  50    H        5.320644000     0.782842000     4.420778000
  51    O        6.222222000    -2.968691000    -3.536567000
  52    H        7.067271000    -2.450547000    -3.656945000
  53    H        5.558914000    -2.284498000    -3.464148000
  54    O        4.697335000     1.944970000    -3.056033000
  55    H        5.243067000     2.625254000    -3.460567000
  56    H        4.272734000     2.490795000    -2.296970000
  57    O        1.909618000     0.437074000     3.913998000
  58    H        2.481933000     0.371260000     3.157828000
  59    H        2.466741000     0.922329000     4.568485000
  60    O       11.787519000    -3.829693000     3.139757000
  61    H       12.577310000    -3.260313000     3.043089000
  62    H       11.766126000    -4.375264000     2.342051000
  63    O        3.975202000    -5.539219000     5.015517000
  64    H        3.879721000    -4.836078000     4.365034000
  65    H        4.636483000    -5.170810000     5.663020000
  66    O        8.252561000    -6.747345000     5.977407000
  67    H        7.856058000    -5.995262000     5.514419000
  68    H        7.881545000    -6.679061000     6.885916000
  69    H        2.775266000     1.280922000     0.392870000
  70    H        6.841095000     0.649927000     0.410827000


           Empirical Formula: C9 H43 N O17  =    70 atoms



      MOLECULAR POINT GROUP   :   C1  


                EIGENVECTORS  


   Root No.      85        86        87        88        89        90        91        92

                85 A      86 A      87 A      88 A      89 A      90 A      91 A      92 A   

               -11.246   -11.003   -10.856   -10.779   -10.472    -9.957    -9.477    -9.143
  
  S   C    1   -0.0140   -0.0015   -0.0217    0.0156   -0.0014    0.0857    0.0022    0.0013
  Px  C    1   -0.0230    0.0013   -0.0235    0.0163    0.0010   -0.1029    0.0248   -0.0225
  Py  C    1   -0.0139    0.0045   -0.0177    0.0128   -0.0026    0.0904    0.0497   -0.0334
  Pz  C    1   -0.0078   -0.0010    0.0185   -0.0128    0.0014   -0.0547    0.0500   -0.0395
  S   O    2    0.0009    0.0036   -0.0141    0.0096   -0.0016    0.0200    0.0035   -0.0012
  Px  O    2   -0.1158    0.0024   -0.0208    0.0191   -0.0096    0.7966   -0.0969    0.0684
  Py  O    2   -0.0024   -0.0051    0.0367   -0.0278    0.0053   -0.3098   -0.2655    0.1295
  Pz  O    2   -0.0270    0.0034   -0.0193    0.0122   -0.0019    0.0095   -0.2831    0.1518
  S   N    3    0.0423   -0.0001   -0.0004   -0.0009    0.0012   -0.1061   -0.0060    0.0064
  Px  N    3    0.0276   -0.0001   -0.0133    0.0107   -0.0033    0.2605    0.1210   -0.0490
  Py  N    3   -0.0347    0.0013    0.0377   -0.0231    0.0020    0.0323    0.3984   -0.2318
  Pz  N    3    0.0500    0.0028   -0.0588    0.0414    0.0006   -0.0852    0.4142   -0.2192
  S   H    4   -0.0351   -0.0010    0.0572   -0.0386    0.0007    0.0882   -0.0099   -0.0045
  S   C    5   -0.0178    0.0004    0.0138   -0.0094    0.0008    0.0101   -0.0482   -0.0081
  Px  C    5   -0.0471   -0.0008   -0.0799    0.0570    0.0010   -0.1772   -0.0172    0.0070
  Py  C    5   -0.0195   -0.0012   -0.1290    0.0923   -0.0023    0.0024   -0.0026    0.0832
  Pz  C    5    0.0049   -0.0010    0.1821   -0.1272    0.0064   -0.0011   -0.0924    0.0759
  S   H    6   -0.0078   -0.0006    0.1628   -0.1149    0.0038    0.0211   -0.1139    0.0634
  S   C    7    0.0412   -0.0003   -0.0512    0.0387   -0.0006    0.0018    0.0719   -0.0323
  Px  C    7    0.2561   -0.0008    0.0358   -0.0343   -0.0011    0.0966   -0.0448    0.0305
  Py  C    7   -0.0345    0.0032    0.2058   -0.1529    0.0022    0.0058    0.1115   -0.1161
  Pz  C    7    0.0495   -0.0013   -0.2506    0.1859   -0.0042   -0.0014    0.0243   -0.0738
  S   H    8   -0.1754   -0.0000   -0.0450    0.0407    0.0008   -0.0730    0.0389    0.0091
  S   H    9    0.0962    0.0005    0.1726   -0.1320    0.0024    0.0456    0.0065    0.0476
  S   C   10    0.0074   -0.0002   -0.0363    0.0216   -0.0009    0.0094   -0.0049    0.0061
  Px  C   10   -0.3358    0.0010    0.0267    0.0148    0.0013   -0.0304    0.0459   -0.0011
  Py  C   10    0.0354   -0.0018   -0.2072    0.1600   -0.0033    0.0175    0.1994    0.1073
  Pz  C   10    0.0189    0.0019    0.1790   -0.1463    0.0028   -0.0160    0.2923    0.0898
  S   C   11    0.0044    0.0003    0.0284   -0.0149    0.0004    0.0024    0.0009   -0.0048
  Px  C   11    0.3061   -0.0010   -0.0149   -0.0195   -0.0005    0.0184    0.0118   -0.0319
  Py  C   11   -0.0006    0.0020    0.2000   -0.1649    0.0023    0.0045    0.0589   -0.2111
  Pz  C   11   -0.0245   -0.0016   -0.1414    0.1185   -0.0016    0.0066    0.0699   -0.2614
  S   H   12   -0.2489    0.0012    0.0540   -0.0132    0.0009   -0.0120    0.0015   -0.0058
  S   C   13    0.0066   -0.0002   -0.0171   -0.0026   -0.0002    0.0014   -0.0010    0.0003
  Px  C   13   -0.3009    0.0010    0.0467    0.0204    0.0007   -0.0094   -0.0259   -0.0549
  Py  C   13    0.0273   -0.0023   -0.1821    0.1667   -0.0024    0.0134   -0.1661   -0.2798
  Pz  C   13    0.0271    0.0007    0.1049   -0.1071    0.0012    0.0072   -0.2217   -0.4073
  S   H   14    0.1537    0.0010    0.1138   -0.1266    0.0012    0.0022    0.0036   -0.0016
  S   C   15    0.0105   -0.0000   -0.0044    0.0074   -0.0001    0.0003    0.0006    0.0034
  Px  C   15    0.3053   -0.0010   -0.0283   -0.0197   -0.0005    0.0101   -0.0373   -0.0089
  Py  C   15   -0.0193    0.0013    0.1269   -0.1055    0.0012   -0.0016   -0.2218   -0.0955
  Pz  C   15   -0.0189   -0.0019   -0.1253    0.1061   -0.0014    0.0071   -0.3071   -0.1263
  S   H   16    0.1095   -0.0020   -0.1494    0.1139   -0.0017    0.0083   -0.0044    0.0063
  S   C   17   -0.0053    0.0001    0.0038   -0.0041    0.0002   -0.0088    0.0041   -0.0049
  Px  C   17    0.3364   -0.0009   -0.0146   -0.0189   -0.0009    0.0245    0.0116    0.0574
  Py  C   17   -0.0452    0.0019    0.1508   -0.1186    0.0019   -0.0211    0.1625    0.2974
  Pz  C   17   -0.0000   -0.0014   -0.1209    0.0939   -0.0013   -0.0026    0.2022    0.4165
  S   H   18    0.1465    0.0012    0.1272   -0.1164    0.0013   -0.0015   -0.0001   -0.0096
  S   C   19   -0.0152   -0.0000   -0.0081    0.0033   -0.0002    0.0033   -0.0024    0.0021
  Px  C   19   -0.3233    0.0009    0.0268    0.0184    0.0008   -0.0156    0.0007    0.0207
  Py  C   19    0.0370   -0.0022   -0.1724    0.1388   -0.0021    0.0086   -0.0662    0.2254
  Pz  C   19    0.0044    0.0009    0.0940   -0.0830    0.0011   -0.0126   -0.0800    0.2841
  S   H   20   -0.2708    0.0010    0.0393   -0.0010    0.0008   -0.0130    0.0061   -0.0050
  S   O   21   -0.0002   -0.0000    0.0001   -0.0000    0.0000   -0.0000   -0.0000    0.0000
  Px  O   21   -0.0006   -0.0000    0.0011   -0.0008    0.0000    0.0018    0.0001   -0.0002
  Py  O   21   -0.0015   -0.0000    0.0002   -0.0001   -0.0000    0.0017   -0.0001    0.0000
  Pz  O   21    0.0010    0.0000   -0.0000   -0.0000    0.0000   -0.0012   -0.0002    0.0001
  S   H   22    0.0001    0.0000   -0.0001    0.0000   -0.0000    0.0001    0.0001   -0.0001
  S   H   23    0.0001    0.0000   -0.0001    0.0001   -0.0000   -0.0000    0.0001   -0.0000
  S   O   24    0.0034   -0.0019    0.0024    0.0031   -0.0000   -0.0001    0.0001    0.0013
  Px  O   24   -0.0142   -0.0083   -0.0003   -0.0021   -0.0003    0.0009    0.0004    0.0010
  Py  O   24   -0.0225    0.0190   -0.0013   -0.0036    0.0007   -0.0066   -0.0008    0.0014
  Pz  O   24   -0.0636   -0.0029    0.0103    0.0025   -0.0003    0.0029    0.0008   -0.0029
  S   H   25   -0.0056    0.0004   -0.0001   -0.0014   -0.0000    0.0001   -0.0000   -0.0018
  S   H   26    0.0014    0.0009   -0.0044   -0.0040   -0.0000    0.0008    0.0000   -0.0005
  S   O   27    0.0027   -0.0000   -0.0021    0.0014   -0.0000    0.0002    0.0000    0.0008
  Px  O   27    0.0157    0.0001    0.0079   -0.0071    0.0001    0.0001   -0.0003   -0.0012
  Py  O   27   -0.0247   -0.0001   -0.0084    0.0084   -0.0001   -0.0002   -0.0002   -0.0015
  Pz  O   27    0.0269   -0.0000    0.0022   -0.0036   -0.0000    0.0006   -0.0010   -0.0022
  S   H   28   -0.0022    0.0000    0.0032   -0.0022    0.0000   -0.0002    0.0000   -0.0007
  S   H   29   -0.0014   -0.0000   -0.0007    0.0006   -0.0000   -0.0000    0.0000   -0.0002
  S   O   30   -0.0011    0.0000   -0.0009    0.0007   -0.0001   -0.0001    0.0006   -0.0027
  Px  O   30   -0.0473   -0.0002   -0.0002    0.0006    0.0002    0.0001    0.0012    0.0104
  Py  O   30   -0.0253   -0.0000   -0.0011    0.0023    0.0000   -0.0008   -0.0021    0.0149
  Pz  O   30   -0.0788   -0.0002   -0.0001    0.0023    0.0001   -0.0014    0.0021    0.0321
  S   H   31    0.0031   -0.0000    0.0009   -0.0009    0.0001    0.0001   -0.0001    0.0007
  S   H   32   -0.0009   -0.0000    0.0000    0.0001    0.0000   -0.0001   -0.0009    0.0035
  S   O   33   -0.0040    0.0000    0.0006   -0.0001    0.0000   -0.0000   -0.0000    0.0002
  Px  O   33   -0.0551    0.0002    0.0083   -0.0014    0.0001   -0.0015    0.0019   -0.0041
  Py  O   33    0.0165   -0.0001   -0.0058    0.0027   -0.0001    0.0007   -0.0003    0.0009
  Pz  O   33    0.0386   -0.0001   -0.0022   -0.0010   -0.0000    0.0006    0.0001   -0.0011
  S   H   34    0.0040   -0.0000   -0.0005   -0.0000   -0.0000    0.0001    0.0000   -0.0002
  S   H   35    0.0044   -0.0000   -0.0004   -0.0001   -0.0000    0.0001    0.0001   -0.0004
  S   O   36    0.0005    0.0000    0.0002   -0.0001   -0.0000   -0.0001    0.0007    0.0021
  Px  O   36    0.0305    0.0001    0.0155   -0.0130    0.0001    0.0008   -0.0045   -0.0080
  Py  O   36   -0.0167   -0.0001   -0.0160    0.0134   -0.0001   -0.0006    0.0032    0.0067
  Pz  O   36   -0.0268   -0.0002   -0.0191    0.0159   -0.0002   -0.0005    0.0051    0.0122
  S   H   37   -0.0017   -0.0000   -0.0011    0.0009   -0.0000    0.0000   -0.0003   -0.0010
  S   H   38   -0.0006    0.0000   -0.0000    0.0000    0.0000    0.0001   -0.0007   -0.0023
  S   O   39   -0.0000   -0.0000   -0.0002    0.0002   -0.0000   -0.0001    0.0002   -0.0004
  Px  O   39   -0.0015    0.0000    0.0000    0.0000    0.0000   -0.0001    0.0001   -0.0000
  Py  O   39    0.0007    0.0000   -0.0028    0.0020   -0.0000   -0.0019    0.0022   -0.0016
  Pz  O   39    0.0041   -0.0000   -0.0036    0.0025   -0.0001   -0.0006    0.0012   -0.0017
  S   H   40    0.0001   -0.0000   -0.0001    0.0001   -0.0000    0.0002   -0.0007    0.0005
  S   H   41   -0.0002    0.0000    0.0006   -0.0004    0.0000    0.0001   -0.0001    0.0003
  S   O   42   -0.0001    0.0000    0.0001   -0.0000   -0.0000    0.0001   -0.0026   -0.0030
  Px  O   42   -0.0001   -0.0000   -0.0009    0.0005   -0.0000    0.0002   -0.0140   -0.0044
  Py  O   42    0.0029   -0.0001   -0.0044    0.0029   -0.0001    0.0008   -0.0330   -0.0221
  Pz  O   42    0.0000   -0.0001   -0.0017    0.0013   -0.0000    0.0007   -0.0293   -0.0202
  S   H   43   -0.0002    0.0000    0.0003   -0.0003    0.0000   -0.0001    0.0032    0.0033
  S   H   44    0.0000   -0.0000   -0.0001    0.0000    0.0000   -0.0001    0.0057    0.0050
  S   O   45    0.0011    0.0001   -0.0079    0.0055   -0.0004   -0.0004    0.0049   -0.0029
  Px  O   45   -0.0059   -0.0003    0.0270   -0.0175   -0.0006    0.0017   -0.0078   -0.0013
  Py  O   45   -0.0020   -0.0002    0.0361   -0.0231   -0.0017    0.0009   -0.0021    0.0059
  Pz  O   45   -0.0140   -0.0004    0.1123   -0.0718   -0.0026    0.0018   -0.0207    0.0174
  S   H   46   -0.0007   -0.0001    0.0056   -0.0039    0.0004    0.0004   -0.0036    0.0023
  S   H   47   -0.0004   -0.0000    0.0031   -0.0021    0.0003   -0.0001   -0.0024    0.0014
  S   O   48   -0.0006    0.0024    0.0031   -0.0020    0.0045    0.0007   -0.0004    0.0002
  Px  O   48    0.0027    0.0125   -0.0156    0.0113    0.5705    0.0007    0.0017   -0.0018
  Py  O   48    0.0008    0.0056   -0.0012    0.0014    0.3724    0.0026   -0.0028    0.0017
  Pz  O   48    0.0001    0.0207    0.0015    0.0002    0.7239    0.0072   -0.0057    0.0033
  S   H   49    0.0003   -0.0025   -0.0014    0.0009   -0.0010   -0.0002    0.0001    0.0000
  S   H   50    0.0004   -0.0008   -0.0029    0.0019   -0.0018   -0.0004    0.0005   -0.0002
  S   O   51    0.0003    0.0000    0.0007   -0.0005    0.0000    0.0000    0.0000   -0.0001
  Px  O   51   -0.0025   -0.0000   -0.0022    0.0017   -0.0000   -0.0005    0.0001    0.0001
  Py  O   51   -0.0018   -0.0000   -0.0087    0.0064   -0.0001   -0.0012    0.0004   -0.0021
  Pz  O   51   -0.0060   -0.0000   -0.0133    0.0095   -0.0002   -0.0012    0.0004   -0.0019
  S   H   52   -0.0005   -0.0000   -0.0006    0.0004   -0.0000   -0.0001   -0.0001    0.0001
  S   H   53   -0.0001   -0.0000   -0.0007    0.0005   -0.0000   -0.0000   -0.0001    0.0001
  S   O   54    0.0002    0.0000   -0.0005    0.0004   -0.0000   -0.0014    0.0006   -0.0003
  Px  O   54    0.0032    0.0001   -0.0032    0.0021   -0.0000   -0.0021    0.0004   -0.0001
  Py  O   54    0.0011    0.0000   -0.0014    0.0010    0.0000   -0.0042    0.0010   -0.0002
  Pz  O   54    0.0068    0.0001   -0.0078    0.0051   -0.0000   -0.0117    0.0031   -0.0008
  S   H   55   -0.0006   -0.0000    0.0009   -0.0006    0.0000    0.0018   -0.0008    0.0003
  S   H   56    0.0004    0.0000   -0.0002    0.0001   -0.0000    0.0005   -0.0006    0.0003
  S   O   57    0.0012    0.0023    0.0006   -0.0006   -0.0156   -0.0044   -0.0014    0.0000
  Px  O   57   -0.0068   -0.3565   -0.0001    0.0037    0.0997    0.0735    0.0459   -0.0214
  Py  O   57    0.0021    0.8685   -0.0079   -0.0002    0.0236    0.0012    0.0007   -0.0004
  Pz  O   57    0.0044   -0.3424    0.0026   -0.0003    0.0263   -0.0620   -0.0361    0.0172
  S   H   58   -0.0013   -0.0023   -0.0003    0.0004    0.0061    0.0017   -0.0013    0.0016
  S   H   59    0.0002   -0.0024   -0.0003    0.0002    0.0092   -0.0044   -0.0020    0.0012
  S   O   60    0.0029   -0.0000   -0.0005    0.0000   -0.0000    0.0002    0.0001   -0.0004
  Px  O   60   -0.0840    0.0002    0.0074   -0.0006    0.0001   -0.0012   -0.0003    0.0015
  Py  O   60    0.0927   -0.0002   -0.0076    0.0009   -0.0001    0.0009    0.0002   -0.0015
  Pz  O   60   -0.0774    0.0002    0.0080   -0.0009    0.0001   -0.0015    0.0003    0.0005
  S   H   61   -0.0066    0.0000    0.0009   -0.0000    0.0000   -0.0003   -0.0001    0.0004
  S   H   62    0.0038   -0.0000   -0.0005   -0.0000   -0.0000    0.0001   -0.0001    0.0002
  S   O   63    0.0069   -0.0009    0.0039   -0.0033    0.0000    0.0002   -0.0002   -0.0003
  Px  O   63    0.0535    0.0052    0.4532    0.5881   -0.0007   -0.0004    0.0015    0.0033
  Py  O   63   -0.0583    0.0017   -0.2599   -0.2925    0.0004   -0.0012    0.0016    0.0042
  Pz  O   63   -0.0372   -0.0049   -0.3248   -0.4248    0.0005    0.0007   -0.0008   -0.0026
  S   H   64   -0.0073    0.0008   -0.0057    0.0026   -0.0000   -0.0002    0.0001    0.0002
  S   H   65   -0.0034    0.0003   -0.0025    0.0005   -0.0000   -0.0000    0.0001    0.0001
  S   O   66    0.0005   -0.0000   -0.0000    0.0002    0.0000   -0.0000    0.0001    0.0001
  Px  O   66    0.0056   -0.0000   -0.0028    0.0032   -0.0000    0.0002   -0.0014   -0.0008
  Py  O   66   -0.0036    0.0001    0.0049   -0.0050    0.0001   -0.0003    0.0023    0.0012
  Pz  O   66    0.0028   -0.0000   -0.0025    0.0020   -0.0000    0.0002   -0.0008   -0.0004
  S   H   67   -0.0011    0.0000    0.0009   -0.0007    0.0000   -0.0000   -0.0002   -0.0002
  S   H   68    0.0005   -0.0000   -0.0009    0.0007   -0.0000    0.0001   -0.0002   -0.0001
  S   H   69   -0.0072    0.0021   -0.0167    0.0127   -0.0046    0.2672   -0.0076    0.0151
  S   H   70   -0.0506   -0.0006   -0.1344    0.0960   -0.0014   -0.1024   -0.0255    0.0261


   Root No.      93        94        95        96        97        98        99       100

                93 A      94 A      95 A      96 A      97 A      98 A      99 A     100 A   

                -8.986     0.789     0.958     1.861     2.785     3.214     3.480     3.534
  
  S   C    1    0.0022    0.0026   -0.0041    0.0142   -0.2757   -0.0057   -0.0535    0.0209
  Px  C    1   -0.0232    0.0070   -0.0171    0.1720   -0.3484   -0.0130   -0.0508    0.0197
  Py  C    1   -0.0438    0.0099   -0.0338    0.5408   -0.0452   -0.0251   -0.0253    0.0073
  Pz  C    1   -0.0499    0.0087   -0.0311    0.5611    0.1485   -0.0226    0.0360   -0.0137
  S   O    2   -0.0015    0.0003   -0.0011    0.0032   -0.0207   -0.0004   -0.0086    0.0026
  Px  O    2    0.0625   -0.0044    0.0099   -0.1054    0.1422    0.0062    0.0160   -0.0065
  Py  O    2    0.1481   -0.0053    0.0185   -0.3006   -0.0107    0.0120   -0.0071    0.0022
  Pz  O    2    0.1713   -0.0062    0.0207   -0.2993   -0.0257    0.0107    0.0047   -0.0003
  S   N    3    0.0090   -0.0057    0.0097    0.0115    0.4421    0.0067    0.0611   -0.0232
  Px  N    3   -0.0581   -0.0042    0.0081   -0.0643    0.0457    0.0066    0.0089   -0.0003
  Py  N    3   -0.2682    0.0026   -0.0003   -0.2652   -0.0793    0.0237   -0.0457    0.0148
  Pz  N    3   -0.2409   -0.0028    0.0091   -0.2591    0.1021    0.0264    0.0584   -0.0178
  S   H    4   -0.0142    0.0052   -0.0115   -0.0033   -0.3573    0.0003   -0.0124    0.0080
  S   C    5   -0.0322    0.0187   -0.0525    0.0137   -0.1900    0.0580   -0.0352    0.0136
  Px  C    5    0.0224   -0.0042    0.0083    0.0185    0.4454    0.0090    0.0807   -0.0295
  Py  C    5    0.1549   -0.0252    0.0788   -0.0547   -0.2309   -0.1177   -0.0617    0.0147
  Pz  C    5    0.0870   -0.0150    0.0328   -0.0204    0.1357   -0.0504    0.0247   -0.0134
  S   H    6    0.0625    0.0020   -0.0052    0.0497   -0.0198    0.0046   -0.0156    0.0043
  S   C    7   -0.0326   -0.0028    0.0105   -0.0549    0.0307   -0.0091   -0.0055    0.0069
  Px  C    7    0.0036   -0.0032   -0.0091   -0.0025    0.0226    0.0155    0.0108    0.0022
  Py  C    7   -0.1716   -0.0114    0.0287   -0.0901   -0.0502   -0.0962   -0.0316   -0.0112
  Pz  C    7   -0.1073    0.0060   -0.0016   -0.0494    0.0344   -0.0161    0.0306    0.0101
  S   H    8    0.0485   -0.0121    0.0337   -0.0063    0.0645   -0.0311    0.0144   -0.0071
  S   H    9    0.0682   -0.0151    0.0417    0.0051   -0.0164   -0.0415    0.0108    0.0053
  S   C   10    0.0134   -0.0049    0.0095    0.0068   -0.0539   -0.0215   -0.0158   -0.0026
  Px  C   10    0.0199   -0.0151    0.0405   -0.0013    0.0385   -0.0195    0.0081   -0.0110
  Py  C   10    0.2719   -0.1194    0.3328    0.0256   -0.0745   -0.2917   -0.0352   -0.0127
  Pz  C   10    0.2756   -0.1449    0.3962    0.0175    0.0605   -0.3077    0.0127    0.0066
  S   C   11   -0.0048    0.0030   -0.0020   -0.0035    0.0024    0.0064   -0.0035   -0.0117
  Px  C   11    0.0498    0.0564   -0.0078   -0.0012    0.0046    0.0418   -0.0008   -0.0106
  Py  C   11    0.2678    0.3397   -0.0505   -0.0014   -0.0153    0.2264   -0.0034   -0.0071
  Pz  C   11    0.3958    0.4550   -0.0661    0.0023   -0.0020    0.3224    0.0140    0.0102
  S   H   12   -0.0099   -0.0005   -0.0029   -0.0005    0.0108    0.0062    0.0039   -0.0011
  S   C   13    0.0058   -0.0050    0.0038    0.0015   -0.0110   -0.0070   -0.0072   -0.0116
  Px  C   13    0.0015   -0.0374   -0.0442   -0.0041    0.0115   -0.0217   -0.0003   -0.0156
  Py  C   13    0.0531   -0.2200   -0.2673   -0.0186   -0.0053   -0.2331   -0.0102   -0.0000
  Pz  C   13    0.0416   -0.2996   -0.3803   -0.0295    0.0241   -0.2963   -0.0014   -0.0013
  S   H   14   -0.0079    0.0056    0.0011   -0.0006    0.0014    0.0037   -0.0004   -0.0008
  S   C   15    0.0009    0.0028   -0.0057   -0.0001   -0.0041   -0.0104   -0.0020   -0.0000
  Px  C   15   -0.0383   -0.0133    0.0499    0.0042   -0.0008    0.0354   -0.0027   -0.0140
  Py  C   15   -0.2379   -0.0965    0.3226    0.0279   -0.0163    0.2138    0.0025    0.0050
  Pz  C   15   -0.3092   -0.1370    0.4466    0.0382   -0.0149    0.3062    0.0074    0.0045
  S   H   16    0.0062   -0.0001    0.0054    0.0008   -0.0058   -0.0034   -0.0006    0.0087
  S   C   17   -0.0091   -0.0000   -0.0038   -0.0021    0.0016    0.0066   -0.0078   -0.0282
  Px  C   17    0.0069   -0.0352   -0.0355    0.0023    0.0006    0.0458   -0.0070   -0.0358
  Py  C   17   -0.0192   -0.2286   -0.2426   -0.0006   -0.0205    0.2512   -0.0085   -0.0289
  Pz  C   17    0.0050   -0.3010   -0.3168   -0.0008   -0.0058    0.3410    0.0209    0.0367
  S   H   18   -0.0145    0.0065   -0.0001   -0.0014    0.0141    0.0006    0.0199    0.0516
  S   C   19    0.0053   -0.0059    0.0071    0.0016   -0.0115    0.0007   -0.0157   -0.0452
  Px  C   19   -0.0353    0.0448   -0.0163   -0.0033    0.0066   -0.0276   -0.0164   -0.0684
  Py  C   19   -0.2296    0.3373   -0.0831   -0.0183   -0.0038   -0.2536   -0.0111    0.0006
  Pz  C   19   -0.3453    0.4560   -0.1149   -0.0273    0.0288   -0.3078   -0.0002   -0.0001
  S   H   20   -0.0048    0.0059   -0.0036   -0.0012    0.0028   -0.0075    0.0152    0.0579
  S   O   21    0.0000   -0.0001    0.0001    0.0002    0.0268    0.0017   -0.0921    0.0305
  Px  O   21   -0.0004    0.0001   -0.0002   -0.0002   -0.0208   -0.0012    0.0628   -0.0203
  Py  O   21    0.0000    0.0001   -0.0002   -0.0002   -0.0334   -0.0022    0.1111   -0.0367
  Pz  O   21    0.0001   -0.0001    0.0002    0.0002    0.0298    0.0018   -0.0963    0.0320
  S   H   22   -0.0001    0.0002   -0.0004   -0.0005   -0.0544   -0.0035    0.1877   -0.0621
  S   H   23    0.0000    0.0001   -0.0002   -0.0002   -0.0463   -0.0032    0.1688   -0.0564
  S   O   24   -0.0010   -0.0018    0.0012    0.0001    0.0005   -0.0021   -0.0006   -0.0003
  Px  O   24   -0.0008    0.0006   -0.0003   -0.0002   -0.0004    0.0014    0.0004    0.0002
  Py  O   24   -0.0022   -0.0029    0.0008    0.0002    0.0011   -0.0032   -0.0008   -0.0003
  Pz  O   24    0.0023    0.0020   -0.0007    0.0000   -0.0004    0.0018    0.0005    0.0001
  S   H   25    0.0015    0.0022   -0.0016   -0.0003   -0.0005    0.0031    0.0008    0.0005
  S   H   26    0.0005    0.0033   -0.0017   -0.0001   -0.0015    0.0046    0.0013    0.0005
  S   O   27   -0.0000   -0.0002   -0.0004    0.0000   -0.0015    0.0034   -0.0555   -0.2043
  Px  O   27   -0.0002    0.0003    0.0002   -0.0000   -0.0006    0.0014   -0.0346   -0.1334
  Py  O   27    0.0014   -0.0008    0.0009    0.0001   -0.0016    0.0031   -0.0477   -0.1756
  Pz  O   27    0.0008    0.0001    0.0017    0.0001   -0.0004   -0.0007   -0.0051   -0.0249
  S   H   28   -0.0000    0.0003    0.0007    0.0000    0.0022   -0.0054    0.0885    0.3287
  S   H   29    0.0001    0.0004   -0.0006   -0.0001    0.0027   -0.0052    0.0940    0.3491
  S   O   30    0.0015   -0.0048    0.0030   -0.0000   -0.0008    0.0052   -0.0087   -0.0352
  Px  O   30   -0.0026   -0.0060    0.0023    0.0004   -0.0010    0.0072   -0.0131   -0.0519
  Py  O   30   -0.0144    0.0094   -0.0028   -0.0006    0.0004   -0.0068    0.0039    0.0163
  Pz  O   30   -0.0192    0.0065   -0.0060   -0.0003    0.0009   -0.0048    0.0086    0.0340
  S   H   31    0.0003    0.0090   -0.0046   -0.0002    0.0015   -0.0116    0.0172    0.0699
  S   H   32   -0.0032    0.0053   -0.0041   -0.0000    0.0013   -0.0063    0.0142    0.0567
  S   O   33   -0.0002    0.0015   -0.0004   -0.0001   -0.0009    0.0005   -0.0453   -0.1750
  Px  O   33    0.0036   -0.0035    0.0007    0.0002    0.0009    0.0009    0.0467    0.1806
  Py  O   33   -0.0000   -0.0001   -0.0003    0.0000   -0.0012    0.0025   -0.0491   -0.1861
  Pz  O   33    0.0014   -0.0022    0.0007    0.0001    0.0006    0.0006    0.0350    0.1341
  S   H   34    0.0002   -0.0017    0.0007    0.0001    0.0019   -0.0023    0.0955    0.3667
  S   H   35    0.0005   -0.0038    0.0007    0.0002    0.0012    0.0014    0.0705    0.2753
  S   O   36   -0.0005   -0.0012   -0.0031   -0.0001   -0.0007    0.0057   -0.0417   -0.1262
  Px  O   36    0.0006    0.0009   -0.0000   -0.0000   -0.0009    0.0019   -0.0289   -0.1066
  Py  O   36   -0.0006   -0.0025   -0.0048   -0.0002   -0.0010    0.0089   -0.0620   -0.1809
  Pz  O   36   -0.0013   -0.0013   -0.0029   -0.0000   -0.0010    0.0020   -0.0118   -0.0591
  S   H   37    0.0003    0.0016    0.0048    0.0002    0.0020   -0.0104    0.0862    0.2841
  S   H   38    0.0007    0.0018    0.0045    0.0003    0.0006   -0.0098    0.0680    0.1847
  S   O   39   -0.0006    0.0002   -0.0007   -0.0008    0.0230    0.0070   -0.1983    0.0516
  Px  O   39    0.0000   -0.0001    0.0002    0.0000   -0.0112   -0.0043    0.1361   -0.0359
  Py  O   39   -0.0019    0.0002   -0.0008   -0.0012    0.0340    0.0084   -0.2420    0.0664
  Pz  O   39   -0.0025    0.0002   -0.0007   -0.0008    0.0174    0.0040   -0.1003    0.0274
  S   H   40    0.0007   -0.0004    0.0012    0.0019   -0.0503   -0.0134    0.3794   -0.1021
  S   H   41    0.0006   -0.0003    0.0009    0.0008   -0.0333   -0.0120    0.3573   -0.0924
  S   O   42   -0.0020   -0.0059    0.0057    0.0006   -0.0004    0.0045   -0.0021   -0.0075
  Px  O   42   -0.0132   -0.0033    0.0068    0.0006   -0.0004    0.0048   -0.0033   -0.0119
  Py  O   42   -0.0223   -0.0126    0.0116    0.0011   -0.0006    0.0072   -0.0019   -0.0068
  Pz  O   42   -0.0194   -0.0100    0.0087    0.0008   -0.0004    0.0049   -0.0004   -0.0015
  S   H   43    0.0018    0.0041   -0.0049   -0.0005    0.0004   -0.0051    0.0047    0.0169
  S   H   44    0.0053    0.0155   -0.0146   -0.0016    0.0009   -0.0118    0.0035    0.0124
  S   O   45   -0.0032   -0.0008    0.0006   -0.0023   -0.0008    0.0007   -0.0022   -0.0118
  Px  O   45    0.0072    0.0002    0.0017    0.0000   -0.0012    0.0015   -0.0038   -0.0153
  Py  O   45    0.0105    0.0016   -0.0006    0.0026    0.0014   -0.0007    0.0032    0.0159
  Pz  O   45    0.0170   -0.0011    0.0008    0.0017    0.0005   -0.0003   -0.0007   -0.0025
  S   H   46    0.0024    0.0010   -0.0016    0.0032    0.0018   -0.0021    0.0058    0.0280
  S   H   47    0.0021    0.0017   -0.0004    0.0029    0.0013   -0.0001    0.0024    0.0140
  S   O   48    0.0001   -0.0001   -0.0000    0.0003    0.0013    0.0001   -0.0001   -0.0021
  Px  O   48   -0.0018   -0.0002    0.0001   -0.0017    0.0008    0.0003   -0.0003   -0.0036
  Py  O   48    0.0018    0.0001    0.0000   -0.0008    0.0001    0.0000    0.0002    0.0013
  Pz  O   48    0.0033    0.0001   -0.0000    0.0004   -0.0018   -0.0002    0.0001    0.0023
  S   H   49    0.0000    0.0001    0.0000    0.0003   -0.0019   -0.0002    0.0001    0.0021
  S   H   50   -0.0001    0.0002   -0.0000   -0.0002   -0.0018   -0.0003    0.0004    0.0049
  S   O   51   -0.0003    0.0001   -0.0008   -0.0005    0.0074    0.0045   -0.0993    0.0149
  Px  O   51   -0.0000   -0.0002   -0.0001    0.0001   -0.0045   -0.0005    0.0335   -0.0201
  Py  O   51   -0.0034    0.0003   -0.0018   -0.0009    0.0145    0.0082   -0.1805    0.0293
  Pz  O   51   -0.0028    0.0001   -0.0003   -0.0001    0.0002    0.0001    0.0004    0.0012
  S   H   52    0.0003   -0.0001    0.0013    0.0007   -0.0092   -0.0072    0.1461   -0.0098
  S   H   53    0.0002   -0.0003    0.0013    0.0009   -0.0174   -0.0091    0.2213   -0.0445
  S   O   54   -0.0002   -0.0002    0.0003   -0.0002    0.0473    0.0040   -0.1639    0.0502
  Px  O   54    0.0000    0.0000   -0.0001   -0.0002    0.0073    0.0013   -0.0554    0.0172
  Py  O   54    0.0000   -0.0003    0.0007   -0.0001    0.0733    0.0053   -0.2412    0.0756
  Pz  O   54   -0.0001   -0.0003    0.0007    0.0000    0.0335    0.0010   -0.0410    0.0126
  S   H   55    0.0002    0.0002   -0.0004    0.0005   -0.0781   -0.0076    0.3256   -0.1007
  S   H   56    0.0003    0.0004   -0.0008    0.0003   -0.0970   -0.0069    0.2932   -0.0906
  S   O   57   -0.0004    0.0001   -0.0009    0.0157    0.0071   -0.0008   -0.0000   -0.0005
  Px  O   57   -0.0246    0.0003   -0.0018    0.0310    0.0125   -0.0014   -0.0001   -0.0010
  Py  O   57   -0.0002    0.0000   -0.0001    0.0013    0.0008   -0.0001   -0.0001   -0.0003
  Pz  O   57    0.0200   -0.0003    0.0016   -0.0254   -0.0091    0.0010   -0.0000    0.0001
  S   H   58    0.0024   -0.0004    0.0022   -0.0402   -0.0187    0.0019   -0.0003    0.0010
  S   H   59    0.0015   -0.0001    0.0006   -0.0120   -0.0062    0.0008    0.0002    0.0010
  S   O   60    0.0007   -0.0013    0.0005    0.0001   -0.0006    0.0026   -0.0202   -0.0803
  Px  O   60   -0.0022    0.0005   -0.0001   -0.0000   -0.0003    0.0012   -0.0156   -0.0623
  Py  O   60    0.0017   -0.0012    0.0005    0.0000    0.0000    0.0010    0.0048    0.0185
  Pz  O   60   -0.0015    0.0012   -0.0005   -0.0001    0.0010   -0.0030    0.0320    0.1257
  S   H   61   -0.0008    0.0019   -0.0006   -0.0001    0.0009   -0.0042    0.0287    0.1148
  S   H   62   -0.0002    0.0013   -0.0005   -0.0001    0.0011   -0.0039    0.0413    0.1638
  S   O   63    0.0000    0.0003    0.0012    0.0001   -0.0000    0.0006   -0.0001   -0.0001
  Px  O   63    0.0006    0.0006    0.0010    0.0001   -0.0001    0.0007   -0.0000   -0.0001
  Py  O   63   -0.0011    0.0007    0.0029    0.0003   -0.0001    0.0012   -0.0003   -0.0003
  Pz  O   63   -0.0000    0.0001   -0.0012   -0.0001    0.0000   -0.0001    0.0001    0.0001
  S   H   64    0.0001   -0.0004   -0.0025   -0.0003    0.0000   -0.0012    0.0003    0.0003
  S   H   65    0.0000   -0.0006   -0.0014   -0.0002    0.0001   -0.0011    0.0001    0.0002
  S   O   66    0.0001    0.0006   -0.0008   -0.0001    0.0001   -0.0009   -0.0001   -0.0004
  Px  O   66   -0.0009   -0.0007    0.0011    0.0001   -0.0001    0.0010    0.0001    0.0004
  Py  O   66    0.0015    0.0012   -0.0018   -0.0002    0.0002   -0.0015   -0.0001   -0.0006
  Pz  O   66   -0.0005   -0.0004    0.0006    0.0000   -0.0000    0.0002    0.0000    0.0000
  S   H   67   -0.0002   -0.0014    0.0021    0.0002   -0.0003    0.0022    0.0001    0.0009
  S   H   68   -0.0001   -0.0004    0.0007    0.0001   -0.0002    0.0009    0.0001    0.0005
  S   H   69    0.0133   -0.0029    0.0049   -0.0104    0.2035    0.0043    0.0556   -0.0198
  S   H   70    0.0543    0.0001    0.0051    0.0242    0.0284    0.0003    0.0165   -0.0030


              NET ATOMIC CHARGES AND DIPOLE CONTRIBUTIONS

  ATOM NO.   TYPE          CHARGE      No. of ELECS.   s-Pop       p-Pop       
    1          C           0.488149        3.5119     1.11277     2.39908
    2          O          -0.671762        6.6718     1.87674     4.79503
    3          N          -0.549084        5.5491     1.55522     3.99387
    4          H           0.329956        0.6700     0.67004
    5          C          -0.055721        4.0557     1.07055     2.98517
    6          H           0.161964        0.8380     0.83804
    7          C          -0.326910        4.3269     1.07089     3.25602
    8          H           0.162345        0.8377     0.83765
    9          H           0.142557        0.8574     0.85744
   10          C          -0.004006        4.0040     1.06346     2.94054
   11          C          -0.177972        4.1780     1.09181     3.08617
   12          H           0.167924        0.8321     0.83208
   13          C          -0.153614        4.1536     1.09153     3.06208
   14          H           0.167106        0.8329     0.83289
   15          C          -0.201673        4.2017     1.08333     3.11834
   16          H           0.160974        0.8390     0.83903
   17          C          -0.177672        4.1777     1.07720     3.10047
   18          H           0.177709        0.8223     0.82229
   19          C          -0.136592        4.1366     1.08765     3.04894
   20          H           0.163411        0.8366     0.83659
   21          O          -0.814649        6.8146     1.83561     4.97904
   22          H           0.439376        0.5606     0.56062
   23          H           0.376252        0.6237     0.62375
   24          O          -0.812051        6.8121     1.82126     4.99079
   25          H           0.431956        0.5680     0.56804
   26          H           0.382893        0.6171     0.61711
   27          O          -0.805008        6.8050     1.83246     4.97254
   28          H           0.392437        0.6076     0.60756
   29          H           0.465812        0.5342     0.53419
   30          O          -0.788167        6.7882     1.83179     4.95637
   31          H           0.366243        0.6338     0.63376
   32          H           0.422889        0.5771     0.57711
   33          O          -0.799407        6.7994     1.82865     4.97076
   34          H           0.390256        0.6097     0.60974
   35          H           0.403536        0.5965     0.59646
   36          O          -0.815294        6.8153     1.82141     4.99388
   37          H           0.397314        0.6027     0.60269
   38          H           0.389709        0.6103     0.61029
   39          O          -0.797690        6.7977     1.82731     4.97038
   40          H           0.371314        0.6287     0.62869
   41          H           0.436401        0.5636     0.56360
   42          O          -0.796979        6.7970     1.83361     4.96337
   43          H           0.416822        0.5832     0.58318
   44          H           0.371228        0.6288     0.62877
   45          O          -0.810958        6.8110     1.82208     4.98888
   46          H           0.368252        0.6317     0.63175
   47          H           0.438937        0.5611     0.56106
   48          O          -0.736318        6.7363     1.82403     4.91229
   49          H           0.397444        0.6026     0.60256
   50          H           0.340852        0.6591     0.65915
   51          O          -0.791738        6.7917     1.82535     4.96639
   52          H           0.408437        0.5916     0.59156
   53          H           0.370379        0.6296     0.62962
   54          O          -0.802243        6.8022     1.83732     4.96492
   55          H           0.345158        0.6548     0.65484
   56          H           0.458776        0.5412     0.54122
   57          O          -0.788938        6.7889     1.81990     4.96904
   58          H           0.372701        0.6273     0.62730
   59          H           0.395627        0.6044     0.60437
   60          O          -0.796611        6.7966     1.81817     4.97844
   61          H           0.392763        0.6072     0.60724
   62          H           0.386977        0.6130     0.61302
   63          O          -0.775100        6.7751     1.82654     4.94856
   64          H           0.358818        0.6412     0.64118
   65          H           0.412371        0.5876     0.58763
   66          O          -0.783249        6.7832     1.82411     4.95914
   67          H           0.377054        0.6229     0.62295
   68          H           0.405959        0.5940     0.59404
   69          H           0.178053        0.8219     0.82195
   70          H           0.184316        0.8157     0.81568
 DIPOLE           X         Y         Z       TOTAL
 POINT-CHG.     8.202    20.253    -4.555    22.320
 HYBRID         0.838     1.624    -0.356     1.862
 SUM            9.040    21.877    -4.911    24.175


          ATOMIC ORBITAL ELECTRON POPULATIONS

     Atom    s        px        py        pz   
    1  C   1.11277   0.82344   0.80957   0.76607
    2  O   1.87674   1.85303   1.48498   1.45701
    3  N   1.55522   1.14827   1.42724   1.41836
    4  H   0.67004
    5  C   1.07055   0.90152   0.96386   1.11979
    6  H   0.83804
    7  C   1.07089   1.16766   1.01779   1.07057
    8  H   0.83765
    9  H   0.85744
   10  C   1.06346   0.98926   0.97874   0.97254
   11  C   1.09181   1.08908   0.99394   1.00314
   12  H   0.83208
   13  C   1.09153   1.02270   1.02072   1.01866
   14  H   0.83289
   15  C   1.08333   1.00742   1.06555   1.04537
   16  H   0.83903
   17  C   1.07720   1.02910   1.03782   1.03356
   18  H   0.82229
   19  C   1.08765   1.07845   0.98619   0.98431
   20  H   0.83659
   21  O   1.83561   1.53005   1.65558   1.79342
   22  H   0.56062
   23  H   0.62375
   24  O   1.82126   1.55347   1.62731   1.81002
   25  H   0.56804
   26  H   0.61711
   27  O   1.83246   1.57576   1.62177   1.77501
   28  H   0.60756
   29  H   0.53419
   30  O   1.83179   1.66008   1.45809   1.83820
   31  H   0.63376
   32  H   0.57711
   33  O   1.82865   1.65901   1.48072   1.83103
   34  H   0.60974
   35  H   0.59646
   36  O   1.82141   1.76470   1.57537   1.65381
   37  H   0.60269
   38  H   0.61029
   39  O   1.82731   1.58119   1.62886   1.76033
   40  H   0.62869
   41  H   0.56360
   42  O   1.83361   1.53385   1.65374   1.77578
   43  H   0.58318
   44  H   0.62877
   45  O   1.82208   1.44897   1.61032   1.92959
   46  H   0.63175
   47  H   0.56106
   48  O   1.82403   1.64557   1.49966   1.76706
   49  H   0.60256
   50  H   0.65915
   51  O   1.82535   1.44142   1.53444   1.99053
   52  H   0.59156
   53  H   0.62962
   54  O   1.83732   1.75796   1.53661   1.67035
   55  H   0.65484
   56  H   0.54122
   57  O   1.81990   1.59722   1.87439   1.49744
   58  H   0.62730
   59  H   0.60437
   60  O   1.81817   1.64917   1.69889   1.63038
   61  H   0.60724
   62  H   0.61302
   63  O   1.82654   1.77434   1.58810   1.58613
   64  H   0.64118
   65  H   0.58763
   66  O   1.82411   1.81232   1.65869   1.48813
   67  H   0.62295
   68  H   0.59404
   69  H   0.82195
   70  H   0.81568


          SIGMA-PI BOND-ORDER MATRIX

                 S-SIGMA    P-SIGMA      P-PI     S-SIGMA    P-SIGMA      P-PI 
                  C  1       C  1       C  1       O  2       O  2       O  2
------------------------------------------------------------------------------
 S-SIGMA  C  1   0.955697
 P-SIGMA  C  1   0.000000   1.771814
   P-PI   C  1   0.000000   0.000000   1.043866
 S-SIGMA  O  2   0.021584   0.123349   0.000034   0.153588
 P-SIGMA  O  2   0.271590   0.534966   0.000985   0.000000   0.896304
   P-PI   O  2   0.006199   0.002890   0.605931   0.000000   0.000000   0.771252
 S-SIGMA  N  3   0.043304   0.181001   0.002596   0.000380   0.011081   0.013787
 P-SIGMA  N  3   0.202485   0.388966   0.001323   0.000046   0.013629   0.006797
   P-PI   N  3   0.001433   0.000695   0.408222   0.001008   0.000719   0.117918
 S-SIGMA  H  4   0.002089   0.004517   0.006090   0.000153   0.014037   0.002781
 S-SIGMA  C  5   0.000119   0.000783   0.000109   0.000088   0.000049   0.000740
 P-SIGMA  C  5   0.000519   0.013934   0.002718   0.000200   0.001878   0.002262
   P-PI   C  5   0.000242   0.000537   0.000767   0.000081   0.001881   0.001947
 S-SIGMA  H  6   0.000090   0.000394   0.001720   0.000001   0.000551   0.000916
 S-SIGMA  C  7   0.000002   0.000151   0.001803   0.000000   0.000008   0.000754
 P-SIGMA  C  7   0.000088   0.000074   0.003104   0.000001   0.000012   0.000786
   P-PI   C  7   0.000008   0.000361   0.001965   0.000009   0.000381   0.001627
 S-SIGMA  H  8   0.000135   0.000336   0.000152   0.000004   0.000000   0.000057
 S-SIGMA  H  9   0.000006   0.000002   0.000071   0.000000   0.000005   0.000013
 S-SIGMA  C 10   0.000002   0.000009   0.000067   0.000001   0.000010   0.000027
 P-SIGMA  C 10   0.000009   0.000018   0.000168   0.000001   0.000011   0.000023
   P-PI   C 10   0.000002   0.000007   0.000097   0.000001   0.000021   0.000080
 S-SIGMA  C 11   0.000000   0.000000   0.000006   0.000001   0.000004   0.000001
 P-SIGMA  C 11   0.000001   0.000001   0.000002   0.000003   0.000002   0.000009
   P-PI   C 11   0.000000   0.000004   0.000085   0.000002   0.000004   0.000049
 S-SIGMA  H 12   0.000001   0.000001   0.000001   0.000001   0.000028   0.000001
 S-SIGMA  C 13   0.000000   0.000000   0.000001   0.000000   0.000000   0.000001
 P-SIGMA  C 13   0.000000   0.000000   0.000004   0.000000   0.000000   0.000002
   P-PI   C 13   0.000000   0.000000   0.000001   0.000000   0.000001   0.000001
 S-SIGMA  H 14   0.000000   0.000000   0.000000   0.000000   0.000000   0.000000
 S-SIGMA  C 15   0.000000   0.000000   0.000000   0.000000   0.000000   0.000000
 P-SIGMA  C 15   0.000000   0.000000   0.000001   0.000000   0.000000   0.000001
   P-PI   C 15   0.000000   0.000000   0.000036   0.000000   0.000000   0.000025
[...]
  
  S  C   5   0.00009     0.01194    -0.01274    -0.00000    -0.00000     0.01009
 PX  C   5   0.00002    -0.03714     0.00704     0.00010     0.00001    -0.00172
 PY  C   5   0.00023     0.01490     0.05719    -0.00006     0.00000    -0.01308
 PZ  C   5   0.00046    -0.01352     0.04473     0.00006     0.00001    -0.00575
  
  S  H   6  -0.00023     0.00723    -0.02338    -0.00002    -0.00001    -0.00104
  
  S  C   7  -0.00001    -0.00344     0.03251    -0.00002     0.00006    -0.00144
 PX  C   7  -0.00003     0.00236    -0.00021    -0.00001     0.00005     0.00077
 PY  C   7   0.00008    -0.00079     0.03198    -0.00004    -0.00007    -0.00638
 PZ  C   7  -0.00009    -0.00022     0.02139    -0.00003     0.00007    -0.00129
  
  S  H   8   0.00009    -0.00096    -0.00580     0.00000     0.00003    -0.00605
  
  S  H   9   0.00017     0.00171    -0.00142     0.00000    -0.00004    -0.00781
  
  S  C  10  -0.00020     0.00191    -0.00435    -0.00001    -0.00030    -0.00264
 PX  C  10  -0.00014    -0.00124     0.00237     0.00001     0.00030    -0.01774
 PY  C  10   0.00182     0.00214    -0.00008     0.00002     0.00016    -0.13523
 PZ  C  10   0.00212    -0.00241     0.00856     0.00001    -0.00022    -0.16406
  
  S  C  11   0.00007    -0.00110     0.00043     0.00008     0.00023     0.00008
 PX  C  11  -0.00015     0.00115     0.00029    -0.00011     0.00023     0.00438
 PY  C  11  -0.00109     0.00054    -0.00254     0.00003    -0.00015     0.02723
 PZ  C  11  -0.00147     0.00072    -0.00362     0.00001    -0.00005     0.03398
  
  S  H  12  -0.00007     0.00182     0.00050    -0.00003     0.00026     0.00049
  
  S  C  13   0.00010     0.00038    -0.00030     0.00001    -0.00387    -0.00056
 PX  C  13  -0.00006    -0.00019     0.00017    -0.00001     0.00299     0.05037
 PY  C  13  -0.00068     0.00029    -0.00101    -0.00000     0.00315     0.30212
 PZ  C  13  -0.00096    -0.00056    -0.00071     0.00003    -0.00222     0.42144
  
  S  H  14  -0.00009    -0.00001     0.00014    -0.00001     0.00829    -0.00136
  
  S  C  15  -0.00030     0.00000    -0.00020     0.00000     0.00023    -0.00714
 PX  C  15  -0.00000     0.00007     0.00031    -0.00001    -0.00022     0.06731
 PY  C  15   0.00132    -0.00023     0.00154     0.00000     0.00016     0.41812
 PZ  C  15   0.00268    -0.00039     0.00237     0.00000    -0.00032     0.57588
  
  S  H  16  -0.00019     0.00010    -0.00003    -0.00000     0.00032     0.00151
  
  S  C  17   0.00093    -0.00025     0.00082     0.00001    -0.00009     0.00098
 PX  C  17   0.00020     0.00042    -0.00111    -0.00001     0.00004    -0.00591
 PY  C  17   0.00083     0.00028    -0.00236     0.00000     0.00011    -0.03223
 PZ  C  17   0.00005     0.00032    -0.00248     0.00000     0.00004    -0.04194
  
  S  H  18  -0.00130    -0.00027     0.00044    -0.00000    -0.00006     0.00142
  
  S  C  19   0.00112     0.00020    -0.00039     0.00000    -0.00030    -0.00172
 PX  C  19   0.00051    -0.00008     0.00001    -0.00000     0.00024     0.03275
 PY  C  19  -0.00262     0.00059    -0.00120    -0.00001     0.00030     0.23701
 PZ  C  19  -0.00246     0.00016    -0.00062    -0.00001    -0.00027     0.32506
  
  S  H  20  -0.00174    -0.00012     0.00018     0.00000     0.00010     0.00214
  
  S  O  21  -0.00000    -0.00033    -0.00012     0.00000     0.00000    -0.00000
 PX  O  21   0.00000     0.00037     0.00010    -0.00000    -0.00000     0.00001
 PY  O  21   0.00000     0.00050     0.00008    -0.00000    -0.00000     0.00000
 PZ  O  21  -0.00000    -0.00046    -0.00013     0.00000     0.00000    -0.00001
  
  S  H  22   0.00000     0.00078     0.00054    -0.00000    -0.00000     0.00003
  
  S  H  23   0.00000     0.00055     0.00026    -0.00000    -0.00000    -0.00000
  
  S  O  24   0.00001    -0.00064     0.00003     0.00196     0.00104    -0.00017
 PX  O  24  -0.00000     0.00003    -0.00002    -0.00120    -0.00145     0.00003
 PY  O  24   0.00002    -0.00108     0.00007     0.00288     0.00091    -0.00018
 PZ  O  24  -0.00001     0.00071    -0.00003    -0.00147    -0.00012     0.00014
  
  S  H  25  -0.00001     0.00019    -0.00004    -0.00287    -0.00344     0.00038
  
  S  H  26  -0.00002     0.00332    -0.00012    -0.00708    -0.00210     0.00040
  
  S  O  27   0.00047     0.00001    -0.00001     0.00000    -0.00000    -0.00001
 PX  O  27  -0.00011    -0.00000    -0.00000    -0.00000    -0.00000     0.00003
 PY  O  27   0.00086     0.00001     0.00000     0.00000    -0.00000    -0.00017
 PZ  O  27   0.00054     0.00000     0.00001     0.00000    -0.00000    -0.00012
  
  S  H  28  -0.00022    -0.00001     0.00002    -0.00000     0.00000    -0.00006
  
  S  H  29  -0.00248    -0.00001     0.00000    -0.00000     0.00000     0.00019
  
  S  O  30   0.00538     0.00000     0.00006     0.00000    -0.00000    -0.00149
 PX  O  30   0.54491     0.00001     0.00002    -0.00000    -0.00000    -0.00189
 PY  O  30   0.19710     0.00001    -0.00001     0.00000     0.00000     0.00222
 PZ  O  30   0.81465     0.00000    -0.00006    -0.00000     0.00000     0.00153
  
  S  H  31  -0.00056    -0.00000    -0.00013    -0.00000     0.00001     0.00565
  
  S  H  32   0.00004    -0.00001    -0.00012    -0.00000     0.00000     0.00214
  
  S  O  33   0.00004     0.00000    -0.00001    -0.00000    -0.00000     0.00047
 PX  O  33  -0.00003    -0.00001     0.00001     0.00000     0.00000    -0.00087
 PY  O  33   0.00013     0.00000    -0.00001     0.00000    -0.00000    -0.00007
 PZ  O  33  -0.00004    -0.00000     0.00001     0.00000     0.00000    -0.00055
  
  S  H  34  -0.00016    -0.00001     0.00002    -0.00000     0.00001    -0.00070
  
  S  H  35   0.00002    -0.00001     0.00002     0.00000     0.00001    -0.00206
  
  S  O  36   0.00005     0.00000    -0.00001     0.00000     0.00000     0.00009
 PX  O  36   0.00007     0.00000    -0.00001     0.00000    -0.00000     0.00009
 PY  O  36   0.00007     0.00000    -0.00001     0.00000     0.00000     0.00008
 PZ  O  36   0.00007     0.00001    -0.00003     0.00000    -0.00000     0.00019
  
  S  H  37  -0.00013    -0.00001     0.00003    -0.00000     0.00000    -0.00028
  
  S  H  38  -0.00003     0.00001    -0.00001    -0.00000    -0.00000    -0.00003
  
  S  O  39  -0.00000    -0.00021     0.00070     0.00000     0.00000     0.00006
 PX  O  39   0.00000    -0.00001     0.00005     0.00000     0.00000    -0.00000
 PY  O  39  -0.00000    -0.00046     0.00118     0.00000     0.00000     0.00008
 PZ  O  39  -0.00000    -0.00032     0.00085     0.00000     0.00000     0.00007
  
  S  H  40   0.00000     0.00067    -0.00322    -0.00000    -0.00000    -0.00019
  
  S  H  41   0.00000     0.00016    -0.00052    -0.00000    -0.00000    -0.00009
  
  S  O  42   0.00005    -0.00001     0.00003     0.00000    -0.00000     0.01028
 PX  O  42   0.00004    -0.00000     0.00003     0.00000    -0.00000     0.00573
 PY  O  42   0.00010    -0.00002     0.00006     0.00000    -0.00000     0.01697
 PZ  O  42   0.00007    -0.00001     0.00005     0.00000    -0.00000     0.01092
  
  S  H  43  -0.00004     0.00000    -0.00002    -0.00000    -0.00000    -0.01027
  
  S  H  44  -0.00018     0.00002    -0.00009    -0.00000    -0.00001    -0.05597
  
  S  O  45   0.00446    -0.00006     0.00049     0.00003     0.00000    -0.00033
 PX  O  45   0.00783     0.00012     0.00016    -0.00002    -0.00000    -0.00023
 PY  O  45  -0.00491     0.00006    -0.00064    -0.00003    -0.00000     0.00050
 PZ  O  45   0.00019     0.00001     0.00007     0.00002     0.00000    -0.00025
  
  S  H  46  -0.01930    -0.00003    -0.00117    -0.00003    -0.00000     0.00083
  
  S  H  47  -0.00270     0.00020    -0.00117    -0.00007    -0.00001     0.00106
  
  S  O  48   0.00020     0.00001     0.00002     0.00017     0.00000    -0.00000
 PX  O  48   0.00046    -0.00062     0.00002     0.00032     0.00000    -0.00001
 PY  O  48  -0.00027     0.00001    -0.00044    -0.00023    -0.00000     0.00001
 PZ  O  48  -0.00023    -0.00011     0.00008    -0.00014    -0.00000     0.00000
  
  S  H  49  -0.00010     0.00010     0.00052    -0.00000    -0.00000    -0.00001
  
  S  H  50  -0.00057     0.00056    -0.00035    -0.00080    -0.00001    -0.00002
  
  S  O  51  -0.00000    -0.00003     0.00011    -0.00000     0.00000     0.00006
 PX  O  51   0.00000     0.00002    -0.00009    -0.00000     0.00000    -0.00002
 PY  O  51  -0.00000    -0.00007     0.00022    -0.00000     0.00000     0.00013
 PZ  O  51  -0.00000    -0.00001     0.00002    -0.00000     0.00000     0.00003
  
  S  H  52   0.00000     0.00003    -0.00015     0.00000    -0.00000    -0.00010
  
  S  H  53   0.00000     0.00006    -0.00034     0.00000    -0.00000    -0.00017
  
  S  O  54  -0.00000    -0.00091     0.00045     0.00000     0.00000    -0.00002
 PX  O  54   0.00000     0.00025    -0.00011    -0.00000     0.00000     0.00001
 PY  O  54  -0.00000    -0.00138     0.00062     0.00000     0.00000    -0.00004
 PZ  O  54  -0.00000    -0.00161     0.00041     0.00001     0.00000    -0.00004
  
  S  H  55   0.00000     0.00106    -0.00069    -0.00000    -0.00000     0.00002
  
  S  H  56   0.00000     0.00273    -0.00188    -0.00001    -0.00000     0.00008
  
  S  O  57   0.00001     0.01051     0.00234     0.00029     0.00002     0.00003
 PX  O  57   0.00002     0.01548     0.00466    -0.35112     0.00003     0.00005
 PY  O  57   0.00001     0.00049    -0.00004     0.87085    -0.00001     0.00000
 PZ  O  57   0.00001    -0.01471    -0.00442    -0.34388    -0.00001    -0.00005
  
  S  H  58  -0.00000    -0.04777    -0.00743     0.00011    -0.00003    -0.00009
  
  S  H  59  -0.00002    -0.00585    -0.00156     0.00001    -0.00002    -0.00002
  
  S  O  60  -0.00014     0.00000    -0.00000     0.00000    -0.00000    -0.00020
 PX  O  60  -0.00031     0.00000    -0.00000    -0.00000    -0.00000    -0.00000
 PY  O  60  -0.00013    -0.00000     0.00001     0.00000     0.00000    -0.00015
 PZ  O  60   0.00006    -0.00001     0.00001    -0.00000     0.00001     0.00020
  
  S  H  61   0.00072    -0.00000     0.00000    -0.00000     0.00000     0.00052
  
  S  H  62   0.00012    -0.00001     0.00001    -0.00000     0.00001     0.00043
  
  S  O  63   0.00001    -0.00004     0.00000     0.00010    -0.00125    -0.00043
 PX  O  63   0.00000    -0.00000    -0.00000     0.00000     0.74727    -0.00023
 PY  O  63   0.00001    -0.00008     0.00001     0.00025    -0.39094    -0.00076
 PZ  O  63  -0.00001     0.00005    -0.00000    -0.00015    -0.53723     0.00027
  
  S  H  64  -0.00001     0.00011    -0.00001    -0.00029    -0.00003     0.00150
  
  S  H  65  -0.00001     0.00002     0.00000    -0.00006    -0.00003     0.00092
  
  S  O  66  -0.00000    -0.00000    -0.00000     0.00000    -0.00016    -0.00046
 PX  O  66   0.00000    -0.00000     0.00000    -0.00000     0.00017     0.00045
 PY  O  66  -0.00000     0.00000    -0.00001     0.00000    -0.00025    -0.00074
 PZ  O  66   0.00000    -0.00000     0.00000    -0.00000     0.00006     0.00027
  
  S  H  67   0.00001    -0.00000     0.00001    -0.00000     0.00062     0.00269
  
  S  H  68   0.00000     0.00000     0.00000    -0.00000     0.00017     0.00033
  
  S  H  69   0.00001     0.06227    -0.00385     0.00047     0.00001    -0.00050
  
  S  H  70  -0.00003    -0.00330    -0.01017     0.00004     0.00000    -0.00126




    ROOT NO.   91          92          93

           -10.57594   -10.50623   -10.35120
  
  
  S  C   1  -0.00050    -0.00039    -0.00032
 PX  C   1  -0.00183    -0.00013    -0.00200
 PY  C   1  -0.00232     0.00070    -0.00299
 PZ  C   1  -0.00164    -0.00048    -0.00198
  
  S  O   2  -0.00012     0.00052    -0.00019
 PX  O   2   0.00043    -0.00024     0.00047
 PY  O   2   0.00059     0.00082     0.00051
 PZ  O   2   0.00100     0.00033     0.00116
  
  S  N   3   0.00227     0.00014     0.00221
 PX  N   3   0.00214    -0.00011     0.00212
 PY  N   3  -0.00227    -0.00014    -0.00184
 PZ  N   3   0.00043     0.00000     0.00044
  
  S  H   4  -0.00238    -0.00017    -0.00242
  
  S  C   5  -0.01561     0.00040    -0.01799
 PX  C   5   0.00343     0.00005     0.00276
 PY  C   5   0.01813    -0.00011     0.02009
 PZ  C   5   0.00772     0.00058     0.00855
  
  S  H   6   0.00252    -0.00086     0.00523
  
  S  C   7   0.00295    -0.00001     0.00332
 PX  C   7  -0.00076    -0.00002    -0.00141
 PY  C   7   0.01002    -0.00007     0.01685
 PZ  C   7   0.00335    -0.00001     0.00896
  
  S  H   8   0.00914     0.00000     0.00702
  
  S  H   9   0.00910     0.00004     0.01235
  
  S  C  10   0.00367    -0.00002     0.00423
 PX  C  10   0.03304     0.00001     0.04417
 PY  C  10   0.26198    -0.00002     0.32391
 PZ  C  10   0.32134     0.00002     0.39376
  
  S  C  11  -0.00139     0.00002    -0.00302
 PX  C  11  -0.00491    -0.00003     0.06349
 PY  C  11  -0.02617     0.00001     0.42164
 PZ  C  11  -0.03310     0.00001     0.56306
  
  S  H  12  -0.00074    -0.00001     0.00024
  
  S  C  13   0.00094    -0.00000    -0.00189
 PX  C  13  -0.02291     0.00000     0.04108
 PY  C  13  -0.13035    -0.00000     0.24051
 PZ  C  13  -0.18391     0.00001     0.33733
  
  S  H  14   0.00098    -0.00000    -0.00209
  
  S  C  15   0.00117     0.00000     0.00040
 PX  C  15   0.00517    -0.00000    -0.00517
 PY  C  15   0.03088    -0.00000    -0.03167
 PZ  C  15   0.04056    -0.00000    -0.04256
  
  S  H  16   0.00047    -0.00000    -0.00073
  
  S  C  17  -0.00187     0.00000    -0.00174
 PX  C  17   0.06661    -0.00000     0.00636
 PY  C  17   0.42796     0.00000     0.03334
 PZ  C  17   0.55834     0.00001     0.04295
  
  S  H  18  -0.00188     0.00000    -0.00145
  
  S  C  19  -0.00488    -0.00000     0.00244
 PX  C  19   0.04358     0.00000    -0.01983
 PY  C  19   0.30719    -0.00001    -0.14177
 PZ  C  19   0.41755    -0.00000    -0.19454
  
  S  H  20   0.00197     0.00000    -0.00189
  
  S  O  21   0.00001     0.00000     0.00001
 PX  O  21  -0.00002    -0.00000    -0.00002
 PY  O  21  -0.00001    -0.00000    -0.00000
 PZ  O  21   0.00001     0.00000     0.00001
  
  S  H  22  -0.00004    -0.00000    -0.00004
  
  S  H  23  -0.00000    -0.00000     0.00001
  
  S  O  24   0.00016     0.00021    -0.00074
 PX  O  24  -0.00008    -0.00010     0.00055
 PY  O  24   0.00016     0.00041    -0.00097
 PZ  O  24  -0.00009    -0.00022     0.00042
  
  S  H  25  -0.00040    -0.00016     0.00138
  
  S  H  26  -0.00059    -0.00073     0.00360
  
  S  O  27  -0.00002    -0.00000     0.00001
 PX  O  27   0.00015     0.00000    -0.00005
 PY  O  27  -0.00033    -0.00000     0.00011
 PZ  O  27  -0.00038    -0.00000     0.00007
  
  S  H  28  -0.00041     0.00000     0.00007
  
  S  H  29   0.00131     0.00000    -0.00026
  
  S  O  30  -0.00247    -0.00000     0.00093
 PX  O  30  -0.00350    -0.00000     0.00134
 PY  O  30   0.00216    -0.00000    -0.00153
 PZ  O  30   0.00173     0.00000    -0.00091
  
  S  H  31   0.00977     0.00001    -0.00372
  
  S  H  32   0.00568     0.00001    -0.00166
  
  S  O  33   0.00059    -0.00000    -0.00030
 PX  O  33  -0.00094     0.00000     0.00055
 PY  O  33   0.00004    -0.00000     0.00001
 PZ  O  33  -0.00064     0.00000     0.00035
  
  S  H  34  -0.00121     0.00000     0.00054
  
  S  H  35  -0.00252     0.00000     0.00129
  
  S  O  36   0.00117    -0.00000    -0.00009
 PX  O  36   0.00110    -0.00000    -0.00020
 PY  O  36   0.00154    -0.00000    -0.00007
 PZ  O  36  -0.00000     0.00000     0.00003
  
  S  H  37  -0.00510     0.00000     0.00060
  
  S  H  38  -0.00325     0.00000     0.00028
  
  S  O  39  -0.00007     0.00000    -0.00009
 PX  O  39   0.00000     0.00000     0.00001
 PY  O  39  -0.00011     0.00000    -0.00013
 PZ  O  39  -0.00009     0.00000    -0.00010
  
  S  H  40   0.00026    -0.00000     0.00032
  
  S  H  41   0.00012     0.00000     0.00015
  
  S  O  42   0.00090    -0.00000     0.00206
 PX  O  42   0.00100    -0.00000     0.00062
 PY  O  42   0.00136    -0.00000     0.00420
 PZ  O  42   0.00079    -0.00000     0.00312
  
  S  H  43  -0.00147     0.00000    -0.00051
  
  S  H  44  -0.00329     0.00000    -0.01084
  
  S  O  45  -0.00130     0.00000    -0.00112
 PX  O  45  -0.00165    -0.00013     0.00027
 PY  O  45   0.00163    -0.00000     0.00177
 PZ  O  45  -0.00015     0.00002    -0.00057
  
  S  H  46   0.00563     0.00016     0.00178
  
  S  H  47   0.00210    -0.00010     0.00569
  
  S  O  48  -0.00007     0.00609    -0.00009
 PX  O  48  -0.00014     0.57768    -0.00017
 PY  O  48   0.00009     0.37501     0.00010
 PZ  O  48   0.00008     0.72402     0.00009
  
  S  H  49   0.00004     0.00001     0.00006
  
  S  H  50   0.00025    -0.00034     0.00034
  
  S  O  51  -0.00003    -0.00000    -0.00008
 PX  O  51   0.00008    -0.00000     0.00002
 PY  O  51  -0.00009    -0.00000    -0.00016
 PZ  O  51  -0.00004    -0.00000    -0.00002
  
  S  H  52  -0.00011     0.00000     0.00017
  
  S  H  53   0.00015     0.00000     0.00024
  
  S  O  54   0.00003     0.00000     0.00003
 PX  O  54  -0.00001    -0.00000    -0.00001
 PY  O  54   0.00005     0.00000     0.00005
 PZ  O  54   0.00006     0.00001     0.00006
  
  S  H  55  -0.00003    -0.00000    -0.00003
  
  S  H  56  -0.00012    -0.00000    -0.00013
  
  S  O  57  -0.00003     0.00837    -0.00007
 PX  O  57  -0.00007     0.01252    -0.00012
 PY  O  57  -0.00000     0.00683    -0.00000
 PZ  O  57   0.00006     0.00452     0.00009
  
  S  H  58   0.00009    -0.01220     0.00025
  
  S  H  59   0.00003    -0.03098     0.00007
  
  S  O  60  -0.00024    -0.00000     0.00014
 PX  O  60  -0.00006     0.00000     0.00001
 PY  O  60  -0.00018    -0.00000     0.00009
 PZ  O  60   0.00019     0.00000    -0.00015
  
  S  H  61   0.00064     0.00000    -0.00041
  
  S  H  62   0.00053     0.00000    -0.00033
  
  S  O  63   0.00024     0.00001    -0.00046
 PX  O  63   0.00014    -0.00000    -0.00020
 PY  O  63   0.00047     0.00003    -0.00084
 PZ  O  63  -0.00019    -0.00002     0.00037
  
  S  H  64  -0.00086    -0.00003     0.00185
  
  S  H  65  -0.00045    -0.00001     0.00075
  
  S  O  66   0.00003     0.00000    -0.00002
 PX  O  66  -0.00003    -0.00000     0.00003
 PY  O  66   0.00004     0.00000    -0.00006
 PZ  O  66  -0.00000    -0.00000     0.00003
  
  S  H  67  -0.00022    -0.00000     0.00006
  
  S  H  68  -0.00004    -0.00000    -0.00001
  
  S  H  69   0.00070    -0.00010     0.00066
  
  S  H  70   0.00237    -0.00003     0.00203

          BONDING CONTRIBUTION OF EACH M.O.

  1.7571  1.7170  1.9227  1.8415  1.7601  1.7158  1.7161  0.0360  1.6993  1.6947
  1.7057  0.0357  0.0083  1.9954  0.0002  1.6712  1.6252  1.6109  0.0656  1.6404
  1.7055  1.7172  1.6194  1.6867  0.0000  1.6566  1.6492  1.6643  0.0142  1.6893
  1.7145  1.7233  1.9951  1.5735  1.9980  0.0009  1.6865  1.6691  1.6240  0.0006
  1.9992  1.9971  1.7341  0.0147  1.6122  1.7637  0.0112  1.5646  0.0042  1.6379
  0.0043  0.0000  1.6780  1.9982  1.8962  1.6580  0.0004  0.0006  1.6814  0.0048
  1.9953  1.9500  1.9463  1.9385  1.9515  1.9897  1.9471  1.9425  1.9624  1.9558
  1.9499  0.0043  0.0044  0.0020  1.1657  0.0555  0.1116  0.0000  0.0006  0.0001
  0.0014  0.0121  0.0040  0.0000  0.0034  0.3055  0.9482  0.0005  0.0008  1.9791
  2.0071  0.0090  2.0116 -1.9960 -2.0039 -2.0422 -1.9177 -1.9980 -1.7135 -1.7274
 -1.7006 -1.9566 -1.6850 -1.7003 -1.7167 -1.9740 -1.7492 -1.7281 -1.6942 -1.9104
 -1.8964 -1.6991 -1.7165 -1.7639 -1.8961 -1.8994 -1.9456 -1.7609 -1.8378 -1.8939
 -1.8192 -1.7242 -1.9886 -1.6811 -1.9163 -1.6768 -1.7219 -1.8464 -1.8343 -1.8443
 -1.8614 -1.7827 -1.9159 -1.6900 -1.9331 -1.9531 -1.8748 -1.7866 -1.6870 -1.6939
 -1.9415 -1.9388 -1.8405 -1.6864 -1.6616 -1.6868 -1.6931 -1.6858 -1.6987 -1.7140
 -1.7217

           DATA FOR GRAPH WRITTEN TO DISK

 **********************
 *                    *
 * JOB ENDED NORMALLY *
 *                    *
 **********************



 TOTAL JOB TIME:             0.90 SECONDS

 == MOPAC DONE ==
