 *******************************************************************************
 ** Site#: 34139        For non-commercial use only    Version 20.015L 64BITS **
 *******************************************************************************
 ** Cite this program as: MOPAC2016, Version: 20.015L, James J. P. Stewart,   **
 ** Stewart Computational Chemistry, web: HTTP://OpenMOPAC.net. Days left: 276**
 *******************************************************************************
 **                                                                           **
 **                                MOPAC2016                                  **
 **                                                                           **
 *******************************************************************************

                              PM7 CALCULATION RESULTS

 *******************************************************************************
 *  CALCULATION DONE:                                Tue Apr 14 16:44:37 2020  *
 *  PM7        - The PM7 Hamiltonian to be used
 *  QMMM       - Generate energies and gradients for use in MM codes
 *  DIPOLE     - PRINT DIPOLE INSTEAD OF ENERGY IN TRAJECTORIES
 *  GEO-OK     - OVERRIDE INTERATOMIC DISTANCE AND OTHER SAFETY CHECKS
 *
 *
 *
 *                 CHARGE ON SYSTEM = 0
 *
 *
 *
 *  LET        - OVERRIDE SOME SAFETY CHECKS
 *  XYZ        - CARTESIAN COORDINATE SYSTEM TO BE USED
 *  FORCE      - FORCE CALCULATION SPECIFIED
 *  1SCF       - DO 1 SCF AND THEN STOP 
 *  T=         - A TIME OF      2.0 MINUTES REQUESTED
 *  DUMP=N     - RESTART FILE WRITTEN EVERY  7200.000 SECONDS
 *  CUTOFF=    - CUTOFF FOR NDDO AND DIPOLE INTERACTIONS =  9.00A
 *  AUX        - OUTPUT AUXILIARY INFORMATION
 *  GRADIENTS  - ALL GRADIENTS TO BE PRINTED
 *  VECTORS    - FINAL EIGENVECTORS TO BE PRINTED
 *  EIGEN      - CONVERT LMO's INTO EIGENVECTORS
 *  LARGE      - EXPANDED OUTPUT TO BE PRINTED
 *  AIGOUT     - IN ARC FILE, INCLUDE AB-INITIO GEOMETRY
 *  GRAPH      - GENERATE FILE FOR GRAPHICS
 *  ALLVEC     - PRINT ALL EIGENVECTORS
 *  LOCALIZE   - LOCALIZED ORBITALS TO BE PRINTED
 *  PI         - BONDS MATRIX, SPLIT INTO SIGMA-PI-DELL COMPONENTS, TO BE PRINTED
 *******************************************************************************
PM7 XYZ T=2M 1SCF LOCALIZE AIGOUT GRAPH GRAPHF LARGE DIPOLE PI FORCE CUTOFF=9.0 AUX LET GRAD QMMM GEO-OK EIGEN VECTORS ALLVEC CHARGE=0
 Test System

   ATOM   CHEMICAL          X               Y               Z
  NUMBER   SYMBOL      (ANGSTROMS)     (ANGSTROMS)     (ANGSTROMS)
 
     1       C          3.58336800  *   0.52425200  *   0.56283200  *
     2       O          3.23456800  *  -0.30883800  *   1.44724000  *
     3       N          4.82330900  *   0.59024000  *   0.05593500  *
     4       H          4.99029900  *   1.17297400  *  -0.74570000  *
     5       C          6.01888100  *  -0.04823800  *   0.61641900  *
     6       H          5.94666300  *  -0.14174000  *   1.72217700  *
     7       C          6.21711800  *  -1.43364600  *  -0.11899400  *
     8       H          5.27764500  *  -1.72410100  *  -0.58981200  *
     9       H          6.96161200  *  -1.40080500  *  -0.96201500  *
    10       C          6.66658900  *  -2.40405200  *   0.91880600  *
    11       C          5.73669800  *  -3.11387900  *   1.61569900  *
    12       H          4.65979300  *  -2.92944200  *   1.35846000  *
    13       C          6.01100700  *  -4.03580800  *   2.64125400  *
    14       H          5.24075300  *  -4.37918900  *   3.34390200  *
    15       C          7.35967300  *  -4.41277200  *   2.82142000  *
    16       H          7.65711900  *  -5.14320700  *   3.57446700  *
    17       C          8.01218400  *  -2.76508300  *   1.12362600  *
    18       H          8.78070500  *  -2.12242200  *   0.80802000  *
    19       C          8.31626100  *  -3.80092200  *   2.00562200  *
    20       H          9.35648800  *  -4.09824800  *   2.07397200  *
    21       O          6.49667500  *   4.22553400  *  -1.87461900  *
    22       H          5.55959200  *   3.96962500  *  -1.61577300  *
    23       H          7.00999900  *   3.42218500  *  -1.84715200  *
    24       O          3.00628700  *  -2.61364800  *   3.56840100  *
    25       H          2.46246000  *  -1.96845400  *   4.08174800  *
    26       H          3.30722900  *  -2.16460200  *   2.76933100  *
    27       O         11.38314400  *  -2.73578000  *  -0.05095500  *
    28       H         12.16286000  *  -2.42866500  *  -0.54953400  *
    29       H         11.17044700  *  -1.97383500  *   0.53015000  *
    30       O          9.76046400  *  -1.62035700  *   2.98192100  *
    31       H         10.59290900  *  -2.22203000  *   2.97707100  *
    32       H         10.01910000  *  -1.04211600  *   2.21796400  *
    33       O         11.76597400  *  -4.96400600  *   0.93751300  *
    34       H         11.67827700  *  -3.99912300  *   0.58788500  *
    35       H         10.96265100  *  -5.26072100  *   0.45409500  *
    36       O          9.29229400  *  -2.94449600  *  -1.81168400  *
    37       H         10.11048300  *  -2.45118600  *  -1.58716500  *
    38       H          8.73472800  *  -2.34978100  *  -2.34224000  *
    39       O          4.55583600  *  -0.94955900  *  -3.47704300  *
    40       H          4.85799100  *  -0.04980500  *  -3.24193300  *
    41       H          3.74170900  *  -0.59823100  *  -4.00797500  *
    42       O          6.87387000  *  -6.64764400  *   0.15833800  *
    43       H          7.39976600  *  -6.72034400  *  -0.70737000  *
    44       H          7.36175500  *  -5.87595500  *   0.58649600  *
    45       O          7.77335800  *  -0.32678500  *   3.86446900  *
    46       H          8.59416400  *  -0.79903900  *   3.56827500  *
    47       H          7.27304700  *  -0.97202300  *   4.25278800  *
    48       O          4.37708300  *   1.21711800  *   4.66016200  *
    49       H          4.50769000  *   2.11019700  *   4.20473900  *
    50       H          4.87280600  *   0.64959000  *   4.03684000  *
    51       O          6.04218400  *  -3.12692900  *  -2.79174700  *
    52       H          6.96905200  *  -2.87494500  *  -2.92840700  *
    53       H          5.66814700  *  -2.20674000  *  -2.99188900  *
    54       O          4.87046800  *   1.70233200  *  -3.02058700  *
    55       H          4.56457700  *   1.88834100  *  -3.93381700  *
    56       H          4.48287900  *   2.47490200  *  -2.47511100  *
    57       O          2.23375800  *   0.02842000  *   3.87950600  *
    58       H          2.71197600  *   0.11558600  *   3.01533900  *
    59       H          2.87641300  *   0.46505100  *   4.45283400  *
    60       O         11.55765900  *  -3.62838800  *   3.18223600  *
    61       H         12.44831800  *  -3.21905100  *   3.12464400  *
    62       H         11.55761400  *  -4.16094100  *   2.32884400  *
    63       O          3.84079900  *  -5.26935400  *   5.11125300  *
    64       H          3.47549100  *  -4.47312300  *   4.66365800  *
    65       H          4.63707100  *  -4.99125300  *   5.65580300  *
    66       O          8.09471700  *  -6.70733300  *   6.14063400  *
    67       H          8.07796300  *  -5.80987900  *   5.77119900  *
    68       H          7.28328100  *  -6.63975000  *   6.69641900  *
    69       H          2.83082100  *   1.21243000  *   0.17788600  *
    70       H          6.84268900  *   0.61396500  *   0.35009700  *
 


          CARTESIAN COORDINATES 

    NO.       ATOM           X           Y           Z

     1         C          3.5834      0.5243      0.5628
     2         O          3.2346     -0.3088      1.4472
     3         N          4.8233      0.5902      0.0559
     4         H          4.9903      1.1730     -0.7457
     5         C          6.0189     -0.0482      0.6164
     6         H          5.9467     -0.1417      1.7222
     7         C          6.2171     -1.4336     -0.1190
     8         H          5.2776     -1.7241     -0.5898
     9         H          6.9616     -1.4008     -0.9620
    10         C          6.6666     -2.4041      0.9188
    11         C          5.7367     -3.1139      1.6157
    12         H          4.6598     -2.9294      1.3585
    13         C          6.0110     -4.0358      2.6413
    14         H          5.2408     -4.3792      3.3439
    15         C          7.3597     -4.4128      2.8214
    16         H          7.6571     -5.1432      3.5745
    17         C          8.0122     -2.7651      1.1236
    18         H          8.7807     -2.1224      0.8080
    19         C          8.3163     -3.8009      2.0056
    20         H          9.3565     -4.0982      2.0740
    21         O          6.4967      4.2255     -1.8746
    22         H          5.5596      3.9696     -1.6158
    23         H          7.0100      3.4222     -1.8472
    24         O          3.0063     -2.6136      3.5684
    25         H          2.4625     -1.9685      4.0817
    26         H          3.3072     -2.1646      2.7693
    27         O         11.3831     -2.7358     -0.0510
    28         H         12.1629     -2.4287     -0.5495
    29         H         11.1704     -1.9738      0.5302
    30         O          9.7605     -1.6204      2.9819
    31         H         10.5929     -2.2220      2.9771
    32         H         10.0191     -1.0421      2.2180
    33         O         11.7660     -4.9640      0.9375
    34         H         11.6783     -3.9991      0.5879
    35         H         10.9627     -5.2607      0.4541
    36         O          9.2923     -2.9445     -1.8117
    37         H         10.1105     -2.4512     -1.5872
    38         H          8.7347     -2.3498     -2.3422
    39         O          4.5558     -0.9496     -3.4770
    40         H          4.8580     -0.0498     -3.2419
    41         H          3.7417     -0.5982     -4.0080
    42         O          6.8739     -6.6476      0.1583
    43         H          7.3998     -6.7203     -0.7074
    44         H          7.3618     -5.8760      0.5865
    45         O          7.7734     -0.3268      3.8645
    46         H          8.5942     -0.7990      3.5683
    47         H          7.2730     -0.9720      4.2528
    48         O          4.3771      1.2171      4.6602
    49         H          4.5077      2.1102      4.2047
    50         H          4.8728      0.6496      4.0368
    51         O          6.0422     -3.1269     -2.7917
    52         H          6.9691     -2.8749     -2.9284
    53         H          5.6681     -2.2067     -2.9919
    54         O          4.8705      1.7023     -3.0206
    55         H          4.5646      1.8883     -3.9338
    56         H          4.4829      2.4749     -2.4751
    57         O          2.2338      0.0284      3.8795
    58         H          2.7120      0.1156      3.0153
    59         H          2.8764      0.4651      4.4528
    60         O         11.5577     -3.6284      3.1822
    61         H         12.4483     -3.2191      3.1246
    62         H         11.5576     -4.1609      2.3288
    63         O          3.8408     -5.2694      5.1113
    64         H          3.4755     -4.4731      4.6637
    65         H          4.6371     -4.9913      5.6558
    66         O          8.0947     -6.7073      6.1406
    67         H          8.0780     -5.8099      5.7712
    68         H          7.2833     -6.6398      6.6964
    69         H          2.8308      1.2124      0.1779
    70         H          6.8427      0.6140      0.3501

 General Reference for PM7:
 "Optimization of Parameters for Semiempirical Methods VI: More Modifications to the 
 NDDO Approximations and Re-optimization of Parameters", J. J. P. Stewart, J. Mol. Mod., 1:32, 19 (2013)
 http://www.springerlink.com/openurl.asp?genre=article&id=doi:10.1007/s00894-012-1667-x

           Empirical Formula: C9 H43 N O17  =    70 atoms



      MOLECULAR POINT GROUP   :   C1  


      RHF CALCULATION, NO. OF DOUBLY OCCUPIED LEVELS = 93


 -------------------------------------------------------------------------------
 PM7 XYZ T=2M 1SCF LOCALIZE AIGOUT GRAPH GRAPHF LARGE DIPOLE PI FORCE CUTOFF=9.0 AUX LET GRAD QMMM GEO-OK EIGEN VECTORS ALLVEC CHARGE=0
 Test System



     1SCF WAS SPECIFIED, SO BFGS WAS NOT USED                 
     SCF FIELD WAS ACHIEVED                                   


                              PM7 CALCULATION
                                                       MOPAC2016 (Version: 20.015L)
                                                       Tue Apr 14 16:44:38 2020
                                                       No. of days remaining = 276




          FINAL HEAT OF FORMATION =      -1273.12837 KCAL/MOL =   -5326.76910 KJ/MOL


          TOTAL ENERGY            =      -6909.63746 EV
          ELECTRONIC ENERGY       =     -54385.88508 EV  POINT GROUP:     C1  
          CORE-CORE REPULSION     =      47476.24762 EV
          COSMO AREA              =        512.69 SQUARE ANGSTROMS
          COSMO VOLUME            =        639.39 CUBIC ANGSTROMS

          GRADIENT NORM           =        265.80342 = 31.76959 PER ATOM
          IONIZATION POTENTIAL    =          9.726943 EV
          HOMO LUMO ENERGIES (EV) =         -9.727 -0.251
          NO. OF FILLED LEVELS    =         93
          MOLECULAR WEIGHT        =        437.4352

          MOLECULAR DIMENSIONS (Angstroms)

            Atom       Atom       Distance
            H    68    H    55    13.89682
            O    57    H    28    11.14616
            H    49    H    43     7.98427


          SCF CALCULATIONS        =          1
 
          WALL-CLOCK TIME         =          0.238 SECONDS
          COMPUTATION TIME        =          0.211 SECONDS

          LARGEST ATOMIC GRADIENTS

          Atom     Label                     Cartesian Gradients           Cartesian Coordinates       |Gradient|
                                           X          Y          Z        X          Y          Z

            30       O                 -63.441      8.690     44.305    9.76046   -1.62036    2.98192     77.867
             1       C                  27.549     51.003    -44.985    3.58337    0.52425    0.56283     73.375
            11       C                  61.664     20.781    -28.402    5.73670   -3.11388    1.61570     70.999
             2       O                 -34.492    -42.690     37.378    3.23457   -0.30884    1.44724     66.402
            51       O                  -7.455    -55.183     13.984    6.04218   -3.12693   -2.79175     57.413
            39       O                  26.094    -46.570     15.023    4.55584   -0.94956   -3.47704     55.455
            42       O                 -44.355    -22.893     22.708    6.87387   -6.64764    0.15834     54.837
            27       O                   0.525    -47.198      8.712   11.38314   -2.73578   -0.05096     47.998
            41       H                 -25.151     33.581    -13.629    3.74171   -0.59823   -4.00798     44.113
            31       H                  34.619      2.336    -26.371   10.59291   -2.22203    2.97707     43.582



       FINAL  POINT  AND  DERIVATIVES

   PARAMETER     ATOM    TYPE            VALUE        GRADIENT
      1          1  C    CARTESIAN X     3.583368     27.549184  KCAL/ANGSTROM
      2          1  C    CARTESIAN Y     0.524252     51.002553  KCAL/ANGSTROM
      3          1  C    CARTESIAN Z     0.562832    -44.985112  KCAL/ANGSTROM
      4          2  O    CARTESIAN X     3.234568    -34.491752  KCAL/ANGSTROM
      5          2  O    CARTESIAN Y    -0.308838    -42.689763  KCAL/ANGSTROM
      6          2  O    CARTESIAN Z     1.447240     37.377755  KCAL/ANGSTROM
      7          3  N    CARTESIAN X     4.823309     -3.574518  KCAL/ANGSTROM
      8          3  N    CARTESIAN Y     0.590240    -13.445466  KCAL/ANGSTROM
      9          3  N    CARTESIAN Z     0.055935     -5.608524  KCAL/ANGSTROM
     10          4  H    CARTESIAN X     4.990299     -5.556331  KCAL/ANGSTROM
     11          4  H    CARTESIAN Y     1.172974      1.154761  KCAL/ANGSTROM
     12          4  H    CARTESIAN Z    -0.745700     10.093538  KCAL/ANGSTROM
     13          5  C    CARTESIAN X     6.018881     15.271536  KCAL/ANGSTROM
     14          5  C    CARTESIAN Y    -0.048238     17.449120  KCAL/ANGSTROM
     15          5  C    CARTESIAN Z     0.616419     24.583459  KCAL/ANGSTROM
     16          6  H    CARTESIAN X     5.946663     -0.477044  KCAL/ANGSTROM
     17          6  H    CARTESIAN Y    -0.141740      5.623477  KCAL/ANGSTROM
     18          6  H    CARTESIAN Z     1.722177      5.346122  KCAL/ANGSTROM
     19          7  C    CARTESIAN X     6.217118    -22.710458  KCAL/ANGSTROM
     20          7  C    CARTESIAN Y    -1.433646    -22.337279  KCAL/ANGSTROM
     21          7  C    CARTESIAN Z    -0.118994    -17.359742  KCAL/ANGSTROM
     22          8  H    CARTESIAN X     5.277645      9.472418  KCAL/ANGSTROM
     23          8  H    CARTESIAN Y    -1.724101      9.527835  KCAL/ANGSTROM
     24          8  H    CARTESIAN Z    -0.589812      3.748644  KCAL/ANGSTROM
     25          9  H    CARTESIAN X     6.961612      8.621014  KCAL/ANGSTROM
     26          9  H    CARTESIAN Y    -1.400805     -4.153325  KCAL/ANGSTROM
     27          9  H    CARTESIAN Z    -0.962015    -10.280216  KCAL/ANGSTROM
     28         10  C    CARTESIAN X     6.666589    -31.127224  KCAL/ANGSTROM
     29         10  C    CARTESIAN Y    -2.404052     14.660047  KCAL/ANGSTROM
     30         10  C    CARTESIAN Z     0.918806     23.694627  KCAL/ANGSTROM
     31         11  C    CARTESIAN X     5.736698     61.663603  KCAL/ANGSTROM
     32         11  C    CARTESIAN Y    -3.113879     20.780979  KCAL/ANGSTROM
     33         11  C    CARTESIAN Z     1.615699    -28.401881  KCAL/ANGSTROM
     34         12  H    CARTESIAN X     4.659793     -9.227969  KCAL/ANGSTROM
     35         12  H    CARTESIAN Y    -2.929442      4.155652  KCAL/ANGSTROM
     36         12  H    CARTESIAN Z     1.358460     -9.351758  KCAL/ANGSTROM
     37         13  C    CARTESIAN X     6.011007    -30.130051  KCAL/ANGSTROM
     38         13  C    CARTESIAN Y    -4.035808     -8.738362  KCAL/ANGSTROM
     39         13  C    CARTESIAN Z     2.641254     -0.768210  KCAL/ANGSTROM
     40         14  H    CARTESIAN X     5.240753     -3.180451  KCAL/ANGSTROM
     41         14  H    CARTESIAN Y    -4.379189      2.241004  KCAL/ANGSTROM
     42         14  H    CARTESIAN Z     3.343902     13.581259  KCAL/ANGSTROM
     43         15  C    CARTESIAN X     7.359673     20.245763  KCAL/ANGSTROM
     44         15  C    CARTESIAN Y    -4.412772     -8.738071  KCAL/ANGSTROM
     45         15  C    CARTESIAN Z     2.821420     10.513001  KCAL/ANGSTROM
     46         16  H    CARTESIAN X     7.657119      4.320489  KCAL/ANGSTROM
     47         16  H    CARTESIAN Y    -5.143207     -3.077734  KCAL/ANGSTROM
     48         16  H    CARTESIAN Z     3.574467      5.151319  KCAL/ANGSTROM
     49         17  C    CARTESIAN X     8.012184     22.693049  KCAL/ANGSTROM
     50         17  C    CARTESIAN Y    -2.765083     -6.443554  KCAL/ANGSTROM
     51         17  C    CARTESIAN Z     1.123626    -25.062696  KCAL/ANGSTROM
     52         18  H    CARTESIAN X     8.780705    -17.524415  KCAL/ANGSTROM
     53         18  H    CARTESIAN Y    -2.122422     -5.149078  KCAL/ANGSTROM
     54         18  H    CARTESIAN Z     0.808020     22.354131  KCAL/ANGSTROM
     55         19  C    CARTESIAN X     8.316261     -4.105838  KCAL/ANGSTROM
     56         19  C    CARTESIAN Y    -3.800922      1.184185  KCAL/ANGSTROM
     57         19  C    CARTESIAN Z     2.005622      1.298748  KCAL/ANGSTROM
     58         20  H    CARTESIAN X     9.356488     -3.712640  KCAL/ANGSTROM
     59         20  H    CARTESIAN Y    -4.098248      4.693069  KCAL/ANGSTROM
     60         20  H    CARTESIAN Z     2.073972     -7.403005  KCAL/ANGSTROM
     61         21  O    CARTESIAN X     6.496675     27.885739  KCAL/ANGSTROM
     62         21  O    CARTESIAN Y     4.225534     20.766595  KCAL/ANGSTROM
     63         21  O    CARTESIAN Z    -1.874619     -8.093675  KCAL/ANGSTROM
     64         22  H    CARTESIAN X     5.559592    -26.164549  KCAL/ANGSTROM
     65         22  H    CARTESIAN Y     3.969625    -15.555460  KCAL/ANGSTROM
     66         22  H    CARTESIAN Z    -1.615773      4.241460  KCAL/ANGSTROM
     67         23  H    CARTESIAN X     7.009999     -3.813412  KCAL/ANGSTROM
     68         23  H    CARTESIAN Y     3.422185     -6.974304  KCAL/ANGSTROM
     69         23  H    CARTESIAN Z    -1.847152      2.698419  KCAL/ANGSTROM
     70         24  O    CARTESIAN X     3.006287      3.896884  KCAL/ANGSTROM
     71         24  O    CARTESIAN Y    -2.613648     -4.420583  KCAL/ANGSTROM
     72         24  O    CARTESIAN Z     3.568401     -9.098955  KCAL/ANGSTROM
     73         25  H    CARTESIAN X     2.462460     -9.512127  KCAL/ANGSTROM
     74         25  H    CARTESIAN Y    -1.968454      2.593619  KCAL/ANGSTROM
     75         25  H    CARTESIAN Z     4.081748     15.083081  KCAL/ANGSTROM
     76         26  H    CARTESIAN X     3.307229      6.486347  KCAL/ANGSTROM
     77         26  H    CARTESIAN Y    -2.164602     -2.363138  KCAL/ANGSTROM
     78         26  H    CARTESIAN Z     2.769331     -6.231931  KCAL/ANGSTROM
     79         27  O    CARTESIAN X    11.383144      0.524596  KCAL/ANGSTROM
     80         27  O    CARTESIAN Y    -2.735780    -47.198209  KCAL/ANGSTROM
     81         27  O    CARTESIAN Z    -0.050955      8.711631  KCAL/ANGSTROM
     82         28  H    CARTESIAN X    12.162860     -5.030590  KCAL/ANGSTROM
     83         28  H    CARTESIAN Y    -2.428665      9.197401  KCAL/ANGSTROM
     84         28  H    CARTESIAN Z    -0.549534      4.484070  KCAL/ANGSTROM
     85         29  H    CARTESIAN X    11.170447      2.509276  KCAL/ANGSTROM
     86         29  H    CARTESIAN Y    -1.973835     12.662609  KCAL/ANGSTROM
     87         29  H    CARTESIAN Z     0.530150     -1.125910  KCAL/ANGSTROM
     88         30  O    CARTESIAN X     9.760464    -63.441313  KCAL/ANGSTROM
     89         30  O    CARTESIAN Y    -1.620357      8.690394  KCAL/ANGSTROM
     90         30  O    CARTESIAN Z     2.981921     44.305004  KCAL/ANGSTROM
     91         31  H    CARTESIAN X    10.592909     34.619282  KCAL/ANGSTROM
     92         31  H    CARTESIAN Y    -2.222030      2.336186  KCAL/ANGSTROM
     93         31  H    CARTESIAN Z     2.977071    -26.370758  KCAL/ANGSTROM
     94         32  H    CARTESIAN X    10.019100     16.620176  KCAL/ANGSTROM
     95         32  H    CARTESIAN Y    -1.042116      1.296109  KCAL/ANGSTROM
     96         32  H    CARTESIAN Z     2.217964    -17.109480  KCAL/ANGSTROM
     97         33  O    CARTESIAN X    11.765974     17.683955  KCAL/ANGSTROM
     98         33  O    CARTESIAN Y    -4.964006     -7.737648  KCAL/ANGSTROM
     99         33  O    CARTESIAN Z     0.937513     14.049635  KCAL/ANGSTROM
    100         34  H    CARTESIAN X    11.678277    -12.558371  KCAL/ANGSTROM
    101         34  H    CARTESIAN Y    -3.999123     11.271925  KCAL/ANGSTROM
    102         34  H    CARTESIAN Z     0.587885     -1.291690  KCAL/ANGSTROM
    103         35  H    CARTESIAN X    10.962651     -7.415075  KCAL/ANGSTROM
    104         35  H    CARTESIAN Y    -5.260721     14.933994  KCAL/ANGSTROM
    105         35  H    CARTESIAN Z     0.454095    -11.832939  KCAL/ANGSTROM
    106         36  O    CARTESIAN X     9.292294     -8.177707  KCAL/ANGSTROM
    107         36  O    CARTESIAN Y    -2.944496    -25.060588  KCAL/ANGSTROM
    108         36  O    CARTESIAN Z    -1.811684      4.960605  KCAL/ANGSTROM
    109         37  H    CARTESIAN X    10.110483     14.881363  KCAL/ANGSTROM
    110         37  H    CARTESIAN Y    -2.451186     16.405560  KCAL/ANGSTROM
    111         37  H    CARTESIAN Z    -1.587165      1.644409  KCAL/ANGSTROM
    112         38  H    CARTESIAN X     8.734728     -6.919573  KCAL/ANGSTROM
    113         38  H    CARTESIAN Y    -2.349781     10.596831  KCAL/ANGSTROM
    114         38  H    CARTESIAN Z    -2.342240     -7.866141  KCAL/ANGSTROM
    115         39  O    CARTESIAN X     4.555836     26.094133  KCAL/ANGSTROM
    116         39  O    CARTESIAN Y    -0.949559    -46.569504  KCAL/ANGSTROM
    117         39  O    CARTESIAN Z    -3.477043     15.022587  KCAL/ANGSTROM
    118         40  H    CARTESIAN X     4.857991     -7.538110  KCAL/ANGSTROM
    119         40  H    CARTESIAN Y    -0.049805     10.174699  KCAL/ANGSTROM
    120         40  H    CARTESIAN Z    -3.241933     -8.927381  KCAL/ANGSTROM
    121         41  H    CARTESIAN X     3.741709    -25.150731  KCAL/ANGSTROM
    122         41  H    CARTESIAN Y    -0.598231     33.580611  KCAL/ANGSTROM
    123         41  H    CARTESIAN Z    -4.007975    -13.628571  KCAL/ANGSTROM
    124         42  O    CARTESIAN X     6.873870    -44.354977  KCAL/ANGSTROM
    125         42  O    CARTESIAN Y    -6.647644    -22.893151  KCAL/ANGSTROM
    126         42  O    CARTESIAN Z     0.158338     22.707538  KCAL/ANGSTROM
    127         43  H    CARTESIAN X     7.399766     24.232595  KCAL/ANGSTROM
    128         43  H    CARTESIAN Y    -6.720344      2.415996  KCAL/ANGSTROM
    129         43  H    CARTESIAN Z    -0.707370    -26.011125  KCAL/ANGSTROM
    130         44  H    CARTESIAN X     7.361755     21.221375  KCAL/ANGSTROM
    131         44  H    CARTESIAN Y    -5.875955     19.203886  KCAL/ANGSTROM
    132         44  H    CARTESIAN Z     0.586496      2.609282  KCAL/ANGSTROM
    133         45  O    CARTESIAN X     7.773358    -15.370718  KCAL/ANGSTROM
    134         45  O    CARTESIAN Y    -0.326785    -19.856121  KCAL/ANGSTROM
    135         45  O    CARTESIAN Z     3.864469     15.795410  KCAL/ANGSTROM
    136         46  H    CARTESIAN X     8.594164      9.024958  KCAL/ANGSTROM
    137         46  H    CARTESIAN Y    -0.799039     -6.735977  KCAL/ANGSTROM
    138         46  H    CARTESIAN Z     3.568275     -7.214749  KCAL/ANGSTROM
    139         47  H    CARTESIAN X     7.273047     20.602400  KCAL/ANGSTROM
    140         47  H    CARTESIAN Y    -0.972023     20.224378  KCAL/ANGSTROM
    141         47  H    CARTESIAN Z     4.252788    -16.161813  KCAL/ANGSTROM
    142         48  O    CARTESIAN X     4.377083    -19.369159  KCAL/ANGSTROM
    143         48  O    CARTESIAN Y     1.217118    -25.589568  KCAL/ANGSTROM
    144         48  O    CARTESIAN Z     4.660162     26.127796  KCAL/ANGSTROM
    145         49  H    CARTESIAN X     4.507690      7.337797  KCAL/ANGSTROM
    146         49  H    CARTESIAN Y     2.110197     18.910207  KCAL/ANGSTROM
    147         49  H    CARTESIAN Z     4.204739    -18.962980  KCAL/ANGSTROM
    148         50  H    CARTESIAN X     4.872806      1.474070  KCAL/ANGSTROM
    149         50  H    CARTESIAN Y     0.649590      3.478826  KCAL/ANGSTROM
    150         50  H    CARTESIAN Z     4.036840    -11.199755  KCAL/ANGSTROM
    151         51  O    CARTESIAN X     6.042184     -7.455253  KCAL/ANGSTROM
    152         51  O    CARTESIAN Y    -3.126929    -55.182617  KCAL/ANGSTROM
    153         51  O    CARTESIAN Z    -2.791747     13.983975  KCAL/ANGSTROM
    154         52  H    CARTESIAN X     6.969052      2.521083  KCAL/ANGSTROM
    155         52  H    CARTESIAN Y    -2.874945     20.976065  KCAL/ANGSTROM
    156         52  H    CARTESIAN Z    -2.928407     -4.454307  KCAL/ANGSTROM
    157         53  H    CARTESIAN X     5.668147     13.093197  KCAL/ANGSTROM
    158         53  H    CARTESIAN Y    -2.206740     33.405934  KCAL/ANGSTROM
    159         53  H    CARTESIAN Z    -2.991889     -4.315757  KCAL/ANGSTROM
    160         54  O    CARTESIAN X     4.870468     19.259749  KCAL/ANGSTROM
    161         54  O    CARTESIAN Y     1.702332    -29.244368  KCAL/ANGSTROM
    162         54  O    CARTESIAN Z    -3.020587     -6.431793  KCAL/ANGSTROM
    163         55  H    CARTESIAN X     4.564577     -8.023906  KCAL/ANGSTROM
    164         55  H    CARTESIAN Y     1.888341      6.796228  KCAL/ANGSTROM
    165         55  H    CARTESIAN Z    -3.933817     -9.036090  KCAL/ANGSTROM
    166         56  H    CARTESIAN X     4.482879     -9.272921  KCAL/ANGSTROM
    167         56  H    CARTESIAN Y     2.474902     22.678203  KCAL/ANGSTROM
    168         56  H    CARTESIAN Z    -2.475111     19.175276  KCAL/ANGSTROM
    169         57  O    CARTESIAN X     2.233758     -8.694987  KCAL/ANGSTROM
    170         57  O    CARTESIAN Y     0.028420     -3.239397  KCAL/ANGSTROM
    171         57  O    CARTESIAN Z     3.879506      5.895507  KCAL/ANGSTROM
    172         58  H    CARTESIAN X     2.711976     19.435297  KCAL/ANGSTROM
    173         58  H    CARTESIAN Y     0.115586     13.679944  KCAL/ANGSTROM
    174         58  H    CARTESIAN Z     3.015339      0.774375  KCAL/ANGSTROM
    175         59  H    CARTESIAN X     2.876413      4.344222  KCAL/ANGSTROM
    176         59  H    CARTESIAN Y     0.465051      0.486060  KCAL/ANGSTROM
    177         59  H    CARTESIAN Z     4.452834     -8.475963  KCAL/ANGSTROM
    178         60  O    CARTESIAN X    11.557659    -15.953736  KCAL/ANGSTROM
    179         60  O    CARTESIAN Y    -3.628388    -27.043238  KCAL/ANGSTROM
    180         60  O    CARTESIAN Z     3.182236     19.968007  KCAL/ANGSTROM
    181         61  H    CARTESIAN X    12.448318     10.129526  KCAL/ANGSTROM
    182         61  H    CARTESIAN Y    -3.219051     10.854423  KCAL/ANGSTROM
    183         61  H    CARTESIAN Z     3.124644    -11.889848  KCAL/ANGSTROM
    184         62  H    CARTESIAN X    11.557614      4.894954  KCAL/ANGSTROM
    185         62  H    CARTESIAN Y    -4.160941     10.677397  KCAL/ANGSTROM
    186         62  H    CARTESIAN Z     2.328844    -13.496092  KCAL/ANGSTROM
    187         63  O    CARTESIAN X     3.840799    -18.463778  KCAL/ANGSTROM
    188         63  O    CARTESIAN Y    -5.269354    -14.515215  KCAL/ANGSTROM
    189         63  O    CARTESIAN Z     5.111253    -14.867490  KCAL/ANGSTROM
    190         64  H    CARTESIAN X     3.475491     -8.758024  KCAL/ANGSTROM
    191         64  H    CARTESIAN Y    -4.473123      8.127866  KCAL/ANGSTROM
    192         64  H    CARTESIAN Z     4.663658     -5.795525  KCAL/ANGSTROM
    193         65  H    CARTESIAN X     4.637071     28.570107  KCAL/ANGSTROM
    194         65  H    CARTESIAN Y    -4.991253      3.612688  KCAL/ANGSTROM
    195         65  H    CARTESIAN Z     5.655803     22.079926  KCAL/ANGSTROM
    196         66  O    CARTESIAN X     8.094717     22.513610  KCAL/ANGSTROM
    197         66  O    CARTESIAN Y    -6.707333    -20.492756  KCAL/ANGSTROM
    198         66  O    CARTESIAN Z     6.140634    -11.271755  KCAL/ANGSTROM
    199         67  H    CARTESIAN X     8.077963    -12.013794  KCAL/ANGSTROM
    200         67  H    CARTESIAN Y    -5.809879      6.413482  KCAL/ANGSTROM
    201         67  H    CARTESIAN Z     5.771199      7.583957  KCAL/ANGSTROM
    202         68  H    CARTESIAN X     7.283281    -10.951214  KCAL/ANGSTROM
    203         68  H    CARTESIAN Y    -6.639750     14.024189  KCAL/ANGSTROM
    204         68  H    CARTESIAN Z     6.696419      4.538074  KCAL/ANGSTROM
    205         69  H    CARTESIAN X     2.830821     10.573073  KCAL/ANGSTROM
    206         69  H    CARTESIAN Y     1.212430     -2.389148  KCAL/ANGSTROM
    207         69  H    CARTESIAN Z     0.177886      3.251946  KCAL/ANGSTROM
    208         70  H    CARTESIAN X     6.842689    -20.039525  KCAL/ANGSTROM
    209         70  H    CARTESIAN Y     0.613965     -5.101566  KCAL/ANGSTROM
    210         70  H    CARTESIAN Z     0.350097     -7.046116  KCAL/ANGSTROM




   ATOM   CHEMICAL          X               Y               Z
  NUMBER   SYMBOL      (ANGSTROMS)     (ANGSTROMS)     (ANGSTROMS)
 
     1       C          3.58336800  *   0.52425200  *   0.56283200  *
     2       O          3.23456800  *  -0.30883800  *   1.44724000  *
     3       N          4.82330900  *   0.59024000  *   0.05593500  *
     4       H          4.99029900  *   1.17297400  *  -0.74570000  *
     5       C          6.01888100  *  -0.04823800  *   0.61641900  *
     6       H          5.94666300  *  -0.14174000  *   1.72217700  *
     7       C          6.21711800  *  -1.43364600  *  -0.11899400  *
     8       H          5.27764500  *  -1.72410100  *  -0.58981200  *
     9       H          6.96161200  *  -1.40080500  *  -0.96201500  *
    10       C          6.66658900  *  -2.40405200  *   0.91880600  *
    11       C          5.73669800  *  -3.11387900  *   1.61569900  *
    12       H          4.65979300  *  -2.92944200  *   1.35846000  *
    13       C          6.01100700  *  -4.03580800  *   2.64125400  *
    14       H          5.24075300  *  -4.37918900  *   3.34390200  *
    15       C          7.35967300  *  -4.41277200  *   2.82142000  *
    16       H          7.65711900  *  -5.14320700  *   3.57446700  *
    17       C          8.01218400  *  -2.76508300  *   1.12362600  *
    18       H          8.78070500  *  -2.12242200  *   0.80802000  *
    19       C          8.31626100  *  -3.80092200  *   2.00562200  *
    20       H          9.35648800  *  -4.09824800  *   2.07397200  *
    21       O          6.49667500  *   4.22553400  *  -1.87461900  *
    22       H          5.55959200  *   3.96962500  *  -1.61577300  *
    23       H          7.00999900  *   3.42218500  *  -1.84715200  *
    24       O          3.00628700  *  -2.61364800  *   3.56840100  *
    25       H          2.46246000  *  -1.96845400  *   4.08174800  *
    26       H          3.30722900  *  -2.16460200  *   2.76933100  *
    27       O         11.38314400  *  -2.73578000  *  -0.05095500  *
    28       H         12.16286000  *  -2.42866500  *  -0.54953400  *
    29       H         11.17044700  *  -1.97383500  *   0.53015000  *
    30       O          9.76046400  *  -1.62035700  *   2.98192100  *
    31       H         10.59290900  *  -2.22203000  *   2.97707100  *
    32       H         10.01910000  *  -1.04211600  *   2.21796400  *
    33       O         11.76597400  *  -4.96400600  *   0.93751300  *
    34       H         11.67827700  *  -3.99912300  *   0.58788500  *
    35       H         10.96265100  *  -5.26072100  *   0.45409500  *
    36       O          9.29229400  *  -2.94449600  *  -1.81168400  *
    37       H         10.11048300  *  -2.45118600  *  -1.58716500  *
    38       H          8.73472800  *  -2.34978100  *  -2.34224000  *
    39       O          4.55583600  *  -0.94955900  *  -3.47704300  *
    40       H          4.85799100  *  -0.04980500  *  -3.24193300  *
    41       H          3.74170900  *  -0.59823100  *  -4.00797500  *
    42       O          6.87387000  *  -6.64764400  *   0.15833800  *
    43       H          7.39976600  *  -6.72034400  *  -0.70737000  *
    44       H          7.36175500  *  -5.87595500  *   0.58649600  *
    45       O          7.77335800  *  -0.32678500  *   3.86446900  *
    46       H          8.59416400  *  -0.79903900  *   3.56827500  *
    47       H          7.27304700  *  -0.97202300  *   4.25278800  *
    48       O          4.37708300  *   1.21711800  *   4.66016200  *
    49       H          4.50769000  *   2.11019700  *   4.20473900  *
    50       H          4.87280600  *   0.64959000  *   4.03684000  *
    51       O          6.04218400  *  -3.12692900  *  -2.79174700  *
    52       H          6.96905200  *  -2.87494500  *  -2.92840700  *
    53       H          5.66814700  *  -2.20674000  *  -2.99188900  *
    54       O          4.87046800  *   1.70233200  *  -3.02058700  *
    55       H          4.56457700  *   1.88834100  *  -3.93381700  *
    56       H          4.48287900  *   2.47490200  *  -2.47511100  *
    57       O          2.23375800  *   0.02842000  *   3.87950600  *
    58       H          2.71197600  *   0.11558600  *   3.01533900  *
    59       H          2.87641300  *   0.46505100  *   4.45283400  *
    60       O         11.55765900  *  -3.62838800  *   3.18223600  *
    61       H         12.44831800  *  -3.21905100  *   3.12464400  *
    62       H         11.55761400  *  -4.16094100  *   2.32884400  *
    63       O          3.84079900  *  -5.26935400  *   5.11125300  *
    64       H          3.47549100  *  -4.47312300  *   4.66365800  *
    65       H          4.63707100  *  -4.99125300  *   5.65580300  *
    66       O          8.09471700  *  -6.70733300  *   6.14063400  *
    67       H          8.07796300  *  -5.80987900  *   5.77119900  *
    68       H          7.28328100  *  -6.63975000  *   6.69641900  *
    69       H          2.83082100  *   1.21243000  *   0.17788600  *
    70       H          6.84268900  *   0.61396500  *   0.35009700  *

                             CARTESIAN COORDINATES

   1    C        3.583368000     0.524252000     0.562832000
   2    O        3.234568000    -0.308838000     1.447240000
   3    N        4.823309000     0.590240000     0.055935000
   4    H        4.990299000     1.172974000    -0.745700000
   5    C        6.018881000    -0.048238000     0.616419000
   6    H        5.946663000    -0.141740000     1.722177000
   7    C        6.217118000    -1.433646000    -0.118994000
   8    H        5.277645000    -1.724101000    -0.589812000
   9    H        6.961612000    -1.400805000    -0.962015000
  10    C        6.666589000    -2.404052000     0.918806000
  11    C        5.736698000    -3.113879000     1.615699000
  12    H        4.659793000    -2.929442000     1.358460000
  13    C        6.011007000    -4.035808000     2.641254000
  14    H        5.240753000    -4.379189000     3.343902000
  15    C        7.359673000    -4.412772000     2.821420000
  16    H        7.657119000    -5.143207000     3.574467000
  17    C        8.012184000    -2.765083000     1.123626000
  18    H        8.780705000    -2.122422000     0.808020000
  19    C        8.316261000    -3.800922000     2.005622000
  20    H        9.356488000    -4.098248000     2.073972000
  21    O        6.496675000     4.225534000    -1.874619000
  22    H        5.559592000     3.969625000    -1.615773000
  23    H        7.009999000     3.422185000    -1.847152000
  24    O        3.006287000    -2.613648000     3.568401000
  25    H        2.462460000    -1.968454000     4.081748000
  26    H        3.307229000    -2.164602000     2.769331000
  27    O       11.383144000    -2.735780000    -0.050955000
  28    H       12.162860000    -2.428665000    -0.549534000
  29    H       11.170447000    -1.973835000     0.530150000
  30    O        9.760464000    -1.620357000     2.981921000
  31    H       10.592909000    -2.222030000     2.977071000
  32    H       10.019100000    -1.042116000     2.217964000
  33    O       11.765974000    -4.964006000     0.937513000
  34    H       11.678277000    -3.999123000     0.587885000
  35    H       10.962651000    -5.260721000     0.454095000
  36    O        9.292294000    -2.944496000    -1.811684000
  37    H       10.110483000    -2.451186000    -1.587165000
  38    H        8.734728000    -2.349781000    -2.342240000
  39    O        4.555836000    -0.949559000    -3.477043000
  40    H        4.857991000    -0.049805000    -3.241933000
  41    H        3.741709000    -0.598231000    -4.007975000
  42    O        6.873870000    -6.647644000     0.158338000
  43    H        7.399766000    -6.720344000    -0.707370000
  44    H        7.361755000    -5.875955000     0.586496000
  45    O        7.773358000    -0.326785000     3.864469000
  46    H        8.594164000    -0.799039000     3.568275000
  47    H        7.273047000    -0.972023000     4.252788000
  48    O        4.377083000     1.217118000     4.660162000
  49    H        4.507690000     2.110197000     4.204739000
  50    H        4.872806000     0.649590000     4.036840000
  51    O        6.042184000    -3.126929000    -2.791747000
  52    H        6.969052000    -2.874945000    -2.928407000
  53    H        5.668147000    -2.206740000    -2.991889000
  54    O        4.870468000     1.702332000    -3.020587000
  55    H        4.564577000     1.888341000    -3.933817000
  56    H        4.482879000     2.474902000    -2.475111000
  57    O        2.233758000     0.028420000     3.879506000
  58    H        2.711976000     0.115586000     3.015339000
  59    H        2.876413000     0.465051000     4.452834000
  60    O       11.557659000    -3.628388000     3.182236000
  61    H       12.448318000    -3.219051000     3.124644000
  62    H       11.557614000    -4.160941000     2.328844000
  63    O        3.840799000    -5.269354000     5.111253000
  64    H        3.475491000    -4.473123000     4.663658000
  65    H        4.637071000    -4.991253000     5.655803000
  66    O        8.094717000    -6.707333000     6.140634000
  67    H        8.077963000    -5.809879000     5.771199000
  68    H        7.283281000    -6.639750000     6.696419000
  69    H        2.830821000     1.212430000     0.177886000
  70    H        6.842689000     0.613965000     0.350097000


           Empirical Formula: C9 H43 N O17  =    70 atoms



      MOLECULAR POINT GROUP   :   C1  


                EIGENVECTORS  


   Root No.       1         2         3         4         5         6         7         8

                 1 A       2 A       3 A       4 A       5 A       6 A       7 A       8 A   

               -37.250   -31.525   -30.978   -30.340   -30.041   -29.910   -29.392   -29.319
  
  S   C    1    0.3025   -0.0010   -0.0286    0.0091    0.0127    0.0556   -0.0112    0.0184
  Px  C    1    0.1979   -0.0004   -0.0091    0.0023   -0.0041   -0.0210    0.0006   -0.0022
  Py  C    1    0.0139   -0.0002   -0.0060    0.0017   -0.0050   -0.0265    0.0021   -0.0048
  Pz  C    1   -0.0804    0.0003    0.0076   -0.0020    0.0089    0.0418   -0.0025    0.0057
  S   O    2    0.0362   -0.0000   -0.0030    0.0017    0.0277    0.1310   -0.0129    0.0263
  Px  O    2    0.0449   -0.0000   -0.0015    0.0005    0.0012    0.0055   -0.0015    0.0026
  Py  O    2    0.0341   -0.0002   -0.0061    0.0022    0.0082    0.0365   -0.0044    0.0068
  Pz  O    2   -0.0459    0.0002    0.0058   -0.0020   -0.0011   -0.0067    0.0040   -0.0062
  S   N    3    0.8194   -0.0015   -0.0364    0.0095   -0.0033   -0.0195   -0.0028    0.0025
  Px  N    3   -0.0388    0.0009    0.0251   -0.0080   -0.0032   -0.0112    0.0064   -0.0095
  Py  N    3    0.0091   -0.0006   -0.0171    0.0053   -0.0001   -0.0064   -0.0018    0.0022
  Pz  N    3    0.0192    0.0002    0.0038   -0.0010    0.0032    0.0124   -0.0011    0.0017
  S   H    4    0.2571   -0.0005   -0.0131    0.0035   -0.0024   -0.0120    0.0001   -0.0004
  S   C    5    0.2390    0.0028    0.0770   -0.0229   -0.0038   -0.0043    0.0118   -0.0180
  Px  C    5   -0.1364    0.0007    0.0189   -0.0046   -0.0004    0.0005    0.0023   -0.0033
  Py  C    5    0.0730   -0.0018   -0.0449    0.0130    0.0041   -0.0037   -0.0039    0.0060
  Pz  C    5   -0.0664    0.0000   -0.0011    0.0012    0.0050    0.0073   -0.0020    0.0025
  S   H    6    0.0764    0.0017    0.0428   -0.0113    0.0054    0.0057    0.0049   -0.0076
  S   C    7    0.0719    0.0068    0.1743   -0.0505   -0.0198   -0.0010    0.0201   -0.0297
  Px  C    7   -0.0248    0.0010    0.0228   -0.0040   -0.0018   -0.0005    0.0020   -0.0034
  Py  C    7    0.0438   -0.0021   -0.0451    0.0122    0.0066   -0.0022   -0.0005    0.0027
  Pz  C    7    0.0097    0.0025    0.0584   -0.0165   -0.0052    0.0011    0.0011   -0.0061
  S   H    8    0.0425    0.0027    0.0679   -0.0205   -0.0085    0.0001    0.0086   -0.0114
  S   H    9    0.0234    0.0026    0.0674   -0.0177   -0.0080   -0.0011    0.0116   -0.0126
  S   C   10    0.0190    0.0187    0.4042   -0.1064   -0.0465    0.0018    0.0132   -0.0383
  Px  C   10   -0.0077    0.0014    0.0233    0.0042    0.0008   -0.0033   -0.0009   -0.0043
  Py  C   10    0.0118   -0.0043   -0.0716    0.0179    0.0118   -0.0009    0.0051   -0.0015
  Pz  C   10   -0.0048    0.0038    0.0630   -0.0152   -0.0057    0.0006   -0.0052    0.0025
  S   C   11    0.0088    0.0182    0.3561   -0.1020   -0.0460    0.0076    0.0015   -0.0078
  Px  C   11    0.0004    0.0069    0.1290   -0.0319   -0.0155   -0.0021   -0.0001   -0.0114
  Py  C   11    0.0058   -0.0010    0.0033   -0.0012    0.0021    0.0001    0.0046   -0.0106
  Pz  C   11   -0.0037    0.0013    0.0003    0.0003    0.0004    0.0006   -0.0046    0.0127
  S   H   12    0.0066    0.0050    0.1044   -0.0319   -0.0131    0.0065    0.0016    0.0008
  S   C   13    0.0012    0.0211    0.3047   -0.0849   -0.0413    0.0053   -0.0089    0.0254
  Px  C   13   -0.0001    0.0073    0.0895   -0.0198   -0.0113   -0.0017   -0.0037   -0.0116
  Py  C   13    0.0011    0.0014    0.0573   -0.0161   -0.0057    0.0010    0.0011   -0.0067
  Pz  C   13   -0.0008   -0.0021   -0.0731    0.0202    0.0103   -0.0009   -0.0005    0.0130
  S   H   14    0.0003    0.0072    0.0847   -0.0252   -0.0116    0.0036   -0.0037    0.0398
  S   C   15    0.0003    0.0285    0.3071   -0.0699   -0.0406    0.0006   -0.0156    0.0039
  Px  C   15   -0.0002   -0.0003   -0.0243    0.0166    0.0046   -0.0018   -0.0023   -0.0103
  Py  C   15    0.0004    0.0018    0.0882   -0.0198   -0.0088   -0.0004   -0.0020   -0.0040
  Pz  C   15   -0.0003   -0.0007   -0.0880    0.0188    0.0119   -0.0001    0.0024    0.0069
  S   H   16   -0.0000    0.0205    0.0868   -0.0186   -0.0119    0.0002   -0.0063    0.0044
  S   C   17    0.0037    0.0181    0.3631   -0.0635   -0.0341   -0.0040    0.0031   -0.0321
  Px  C   17   -0.0028   -0.0046   -0.0968    0.0394    0.0151   -0.0018   -0.0022    0.0076
  Py  C   17    0.0025   -0.0032   -0.0422    0.0082    0.0103   -0.0009    0.0073   -0.0008
  Pz  C   17   -0.0010    0.0038    0.0565   -0.0088   -0.0030   -0.0012   -0.0072   -0.0006
  S   H   18    0.0023    0.0057    0.1222   -0.0057   -0.0050   -0.0034    0.0080   -0.0126
  S   C   19    0.0004    0.0218    0.3368   -0.0475   -0.0380   -0.0027   -0.0178   -0.0183
  Px  C   19   -0.0005   -0.0070   -0.1085    0.0416    0.0146   -0.0006   -0.0021    0.0021
  Py  C   19    0.0005    0.0004    0.0469   -0.0075    0.0008   -0.0019    0.0029   -0.0067
  Pz  C   19   -0.0002    0.0015   -0.0204    0.0018    0.0027    0.0001   -0.0040    0.0060
  S   H   20    0.0000    0.0073    0.1060    0.0126   -0.0127   -0.0010   -0.0162   -0.0065
  S   O   21    0.0036   -0.0000   -0.0005    0.0002   -0.0004   -0.0021    0.0036   -0.0027
  Px  O   21   -0.0009    0.0000    0.0001   -0.0000    0.0000    0.0002   -0.0003    0.0002
  Py  O   21   -0.0017    0.0000    0.0001   -0.0001    0.0001    0.0006   -0.0010    0.0007
  Pz  O   21    0.0005   -0.0000   -0.0000    0.0000   -0.0000   -0.0001    0.0002   -0.0002
  S   H   22    0.0037   -0.0000   -0.0003    0.0001   -0.0002   -0.0009    0.0014   -0.0010
  S   H   23    0.0029   -0.0000   -0.0002    0.0001   -0.0002   -0.0009    0.0015   -0.0011
  S   O   24    0.0005    0.0014    0.0282   -0.0118    0.0227    0.1312   -0.0039    0.1019
  Px  O   24    0.0001    0.0001    0.0019   -0.0005   -0.0018   -0.0077    0.0001   -0.0011
  Py  O   24    0.0001    0.0002    0.0064   -0.0026    0.0073    0.0384   -0.0006    0.0113
  Pz  O   24   -0.0002   -0.0002   -0.0057    0.0020   -0.0010   -0.0087   -0.0000    0.0006
  S   H   25    0.0001    0.0005    0.0095   -0.0040    0.0120    0.0629   -0.0016    0.0371
  S   H   26    0.0008    0.0009    0.0189   -0.0070    0.0096    0.0579   -0.0014    0.0362
  S   O   27    0.0001    0.0025    0.0853    0.4347   -0.1061    0.0291    0.6023    0.0240
  Px  O   27   -0.0000    0.0002    0.0083    0.0587   -0.0152    0.0043    0.0759    0.0036
  Py  O   27    0.0000    0.0003    0.0120    0.0516   -0.0109    0.0030    0.1250    0.0040
  Pz  O   27    0.0000    0.0003    0.0087    0.0338   -0.0062    0.0015    0.0104    0.0007
  S   H   28    0.0000    0.0008    0.0294    0.1522   -0.0375    0.0103    0.2136    0.0085
  S   H   29    0.0001    0.0012    0.0373    0.1587   -0.0343    0.0090    0.2085    0.0076
  S   O   30    0.0004    0.0035    0.0910    0.1604    0.1771   -0.0527   -0.1043   -0.0084
  Px  O   30   -0.0001    0.0003    0.0100    0.0383   -0.0096    0.0011   -0.0334   -0.0024
  Py  O   30    0.0001   -0.0002   -0.0005   -0.0005    0.0338   -0.0086    0.0105    0.0010
  Pz  O   30   -0.0001   -0.0008   -0.0194   -0.0248   -0.0078    0.0035    0.0134    0.0024
  S   H   31    0.0001    0.0018    0.0416    0.0871    0.0392   -0.0129   -0.0684   -0.0043
  S   H   32    0.0003    0.0017    0.0425    0.0641    0.0668   -0.0200   -0.0302   -0.0035
  S   O   33    0.0000    0.0028    0.0850    0.4614   -0.1189    0.0321    0.0542    0.0107
  Px  O   33   -0.0000   -0.0007   -0.0185   -0.0905    0.0235   -0.0063   -0.0098   -0.0019
  Py  O   33    0.0000    0.0006    0.0177    0.0894   -0.0208    0.0054    0.0062    0.0015
  Pz  O   33   -0.0000   -0.0002   -0.0086   -0.0510    0.0158   -0.0045   -0.0430   -0.0027
  S   H   34    0.0000    0.0015    0.0435    0.2205   -0.0544    0.0145    0.0595    0.0055
  S   H   35    0.0000    0.0012    0.0351    0.1752   -0.0457    0.0122    0.0265    0.0041
  S   O   36    0.0007    0.0009    0.0286    0.0502   -0.0184    0.0037    0.1585   -0.0059
  Px  O   36   -0.0002    0.0000    0.0010    0.0096   -0.0022    0.0006    0.0160    0.0006
  Py  O   36    0.0003    0.0003    0.0089    0.0140   -0.0051    0.0010    0.0430   -0.0017
  Pz  O   36   -0.0001    0.0000    0.0002   -0.0005    0.0006   -0.0001   -0.0082    0.0006
  S   H   37    0.0003    0.0005    0.0154    0.0334   -0.0104    0.0023    0.0784   -0.0014
  S   H   38    0.0008    0.0005    0.0141    0.0167   -0.0071    0.0012    0.0592   -0.0033
  S   O   39    0.0049    0.0002    0.0058   -0.0017   -0.0028   -0.0026    0.0272   -0.0138
  Px  O   39    0.0004    0.0000    0.0008   -0.0001   -0.0001    0.0001   -0.0001    0.0003
  Py  O   39    0.0025    0.0000    0.0004   -0.0002   -0.0005   -0.0008    0.0054   -0.0031
  Pz  O   39    0.0010    0.0000    0.0007   -0.0002   -0.0001    0.0000   -0.0002    0.0002
  S   H   40    0.0067    0.0001    0.0027   -0.0008   -0.0013   -0.0014    0.0113   -0.0058
  S   H   41    0.0020    0.0000    0.0015   -0.0005   -0.0009   -0.0009    0.0087   -0.0045
  S   O   42    0.0000    0.0031    0.0541   -0.0127   -0.0145    0.0006   -0.0069   -0.0058
  Px  O   42    0.0000    0.0008    0.0139   -0.0030   -0.0035    0.0001   -0.0015   -0.0013
  Py  O   42    0.0000    0.0009    0.0139   -0.0030   -0.0030    0.0001   -0.0012   -0.0010
  Pz  O   42    0.0000    0.0001   -0.0002    0.0002    0.0006   -0.0000    0.0004    0.0005
  S   H   43    0.0000    0.0011    0.0187   -0.0042   -0.0050    0.0002   -0.0023   -0.0020
  S   H   44    0.0001    0.0024    0.0369   -0.0077   -0.0077    0.0003   -0.0031   -0.0024
  S   O   45    0.0015    0.0037    0.1067    0.1148    0.7794   -0.1961    0.0628    0.0158
  Px  O   45   -0.0004    0.0002    0.0045    0.0060    0.0188   -0.0082   -0.0011    0.0003
  Py  O   45   -0.0004   -0.0012   -0.0324   -0.0322   -0.2173    0.0550   -0.0170   -0.0043
  Pz  O   45   -0.0004    0.0001    0.0030    0.0044    0.0380   -0.0087    0.0041    0.0011
  S   H   46    0.0008    0.0018    0.0484    0.0489    0.2817   -0.0724    0.0157    0.0045
  S   H   47    0.0012    0.0019    0.0493    0.0474    0.3320   -0.0805    0.0271    0.0065
  S   O   48    0.0023    0.0003    0.0122    0.0005    0.1721    0.6432    0.0038   -0.0668
  Px  O   48    0.0006    0.0000    0.0014    0.0003    0.0175    0.0568    0.0009   -0.0092
  Py  O   48   -0.0003   -0.0000   -0.0004    0.0000    0.0019    0.0108    0.0002   -0.0035
  Pz  O   48   -0.0010   -0.0001   -0.0033   -0.0001   -0.0423   -0.1552   -0.0009    0.0153
  S   H   49    0.0013    0.0001    0.0042    0.0002    0.0588    0.2197    0.0013   -0.0229
  S   H   50    0.0029    0.0002    0.0065    0.0004    0.0727    0.2566    0.0017   -0.0250
  S   O   51    0.0025    0.0007    0.0243   -0.0033   -0.0074   -0.0004    0.0563   -0.0191
  Px  O   51    0.0002    0.0001    0.0043    0.0000   -0.0013   -0.0000    0.0102   -0.0029
  Py  O   51    0.0014    0.0003    0.0079   -0.0013   -0.0021   -0.0001    0.0143   -0.0051
  Pz  O   51    0.0003    0.0000   -0.0000   -0.0003    0.0003    0.0000   -0.0038    0.0011
  S   H   52    0.0016    0.0004    0.0130   -0.0009   -0.0037   -0.0001    0.0267   -0.0083
  S   H   53    0.0027    0.0004    0.0121   -0.0021   -0.0032   -0.0003    0.0215   -0.0079
  S   O   54    0.0116   -0.0000   -0.0010    0.0003   -0.0013   -0.0039    0.0117   -0.0067
  Px  O   54   -0.0017    0.0000    0.0002   -0.0001    0.0002    0.0006   -0.0017    0.0010
  Py  O   54    0.0011   -0.0000   -0.0006    0.0002   -0.0001   -0.0005    0.0007   -0.0005
  Pz  O   54    0.0073   -0.0000   -0.0006    0.0002    0.0000   -0.0002   -0.0016    0.0009
  S   H   55    0.0029   -0.0000   -0.0001    0.0001   -0.0005   -0.0014    0.0049   -0.0028
  S   H   56    0.0122   -0.0000   -0.0010    0.0003   -0.0005   -0.0017    0.0035   -0.0020
  S   O   57    0.0011    0.0003    0.0101   -0.0032    0.1070    0.4735   -0.0058    0.0152
  Px  O   57    0.0004    0.0001    0.0031   -0.0009    0.0307    0.1335   -0.0014    0.0032
  Py  O   57    0.0003    0.0000    0.0004    0.0000    0.0137    0.0585   -0.0005   -0.0021
  Pz  O   57    0.0001   -0.0000   -0.0007    0.0003   -0.0034   -0.0169    0.0005   -0.0024
  S   H   58    0.0015    0.0002    0.0048   -0.0014    0.0430    0.1893   -0.0026    0.0075
  S   H   59    0.0008    0.0002    0.0048   -0.0012    0.0526    0.2248   -0.0020    0.0020
  S   O   60    0.0000    0.0033    0.0959    0.4769   -0.0668    0.0141   -0.5827   -0.0155
  Px  O   60   -0.0000    0.0003    0.0126    0.0851   -0.0152    0.0036   -0.1106   -0.0026
  Py  O   60    0.0000   -0.0000    0.0007   -0.0027    0.0074   -0.0022   -0.0073   -0.0006
  Pz  O   60   -0.0000   -0.0009   -0.0239   -0.1079    0.0171   -0.0038    0.1030    0.0026
  S   H   61    0.0000    0.0013    0.0370    0.1851   -0.0251    0.0053   -0.2208   -0.0058
  S   H   62    0.0000    0.0018    0.0470    0.2144   -0.0359    0.0081   -0.1917   -0.0045
  S   O   63    0.0000    0.0095    0.0305   -0.0152   -0.0057    0.0226   -0.0239    0.8564
  Px  O   63    0.0000    0.0021    0.0038   -0.0017   -0.0007    0.0017   -0.0022    0.0763
  Py  O   63    0.0000    0.0024    0.0090   -0.0042   -0.0015    0.0060   -0.0058    0.2050
  Pz  O   63   -0.0000    0.0007   -0.0015    0.0004    0.0001   -0.0001   -0.0003    0.0129
  S   H   64    0.0000    0.0036    0.0148   -0.0067   -0.0022    0.0101   -0.0088    0.3115
  S   H   65    0.0000    0.0060    0.0126   -0.0059   -0.0022    0.0079   -0.0084    0.2999
  S   O   66   -0.0000    0.8542   -0.0502    0.0048    0.0023   -0.0003    0.0014   -0.0099
  Px  O   66    0.0000   -0.1537    0.0091   -0.0009   -0.0004    0.0000   -0.0002    0.0009
  Py  O   66   -0.0000    0.1890   -0.0096    0.0007    0.0003   -0.0001    0.0001   -0.0016
  Pz  O   66    0.0000    0.0303   -0.0030    0.0004    0.0003   -0.0000    0.0002   -0.0002
  S   H   67   -0.0000    0.3274   -0.0158    0.0012    0.0005   -0.0001    0.0002   -0.0026
  S   H   68   -0.0000    0.3148   -0.0184    0.0017    0.0009   -0.0001    0.0005   -0.0020
  S   H   69    0.0826   -0.0004   -0.0112    0.0036    0.0042    0.0177   -0.0039    0.0063
  S   H   70    0.0842    0.0011    0.0299   -0.0085   -0.0010   -0.0035    0.0053   -0.0079


   Root No.       9        10        11        12        13        14        15        16

                 9 A      10 A      11 A      12 A      13 A      14 A      15 A      16 A   

               -29.110   -29.027   -28.889   -28.842   -28.749   -28.705   -28.627   -28.280
  
  S   C    1   -0.1607    0.2752    0.0191    0.0006   -0.2393   -0.0292    0.0221    0.0649
  Px  C    1    0.0357   -0.0880    0.0030    0.0015    0.0657    0.0125   -0.0146   -0.0173
  Py  C    1    0.0647   -0.1285    0.0036    0.0052    0.1037    0.0191   -0.0223   -0.0341
  Pz  C    1   -0.0767    0.1554   -0.0046   -0.0048   -0.1160   -0.0222    0.0254    0.0310
  S   O    2   -0.2697    0.5264    0.0016   -0.0086   -0.3954   -0.0649    0.0674    0.1143
  Px  O    2   -0.0289    0.0487    0.0018   -0.0013   -0.0504   -0.0073    0.0074    0.0200
  Py  O    2   -0.0800    0.1489    0.0045   -0.0017   -0.1243   -0.0188    0.0174    0.0208
  Pz  O    2    0.0751   -0.1332   -0.0072    0.0023    0.1449    0.0204   -0.0196   -0.0485
  S   N    3    0.0152   -0.0745    0.0113    0.0031    0.0540    0.0142   -0.0206   -0.0181
  Px  N    3    0.0555   -0.0812   -0.0197   -0.0066    0.0822    0.0020    0.0067   -0.0220
  Py  N    3    0.0099   -0.0223    0.0119    0.0088    0.0148    0.0086   -0.0148   -0.0072
  Pz  N    3   -0.0329    0.0459   -0.0035   -0.0049   -0.0402   -0.0089    0.0111    0.0128
  S   H    4    0.0309   -0.0442    0.0077    0.0090    0.0384    0.0107   -0.0149   -0.0128
  S   C    5    0.0531   -0.0704   -0.0475   -0.0213    0.0793   -0.0126    0.0338   -0.0166
  Px  C    5    0.0081    0.0013   -0.0068   -0.0014    0.0020   -0.0038    0.0057   -0.0009
  Py  C    5   -0.0036   -0.0139    0.0174    0.0074    0.0055    0.0082   -0.0162   -0.0045
  Pz  C    5   -0.0182    0.0242    0.0055    0.0043   -0.0254    0.0008   -0.0024    0.0082
  S   H    6    0.0141   -0.0171   -0.0203   -0.0078    0.0199   -0.0057    0.0162   -0.0010
  S   C    7    0.0651   -0.0362   -0.0773   -0.0375    0.0618   -0.0310    0.0646   -0.0098
  Px  C    7    0.0018   -0.0005   -0.0043   -0.0008   -0.0012   -0.0046    0.0017   -0.0031
  Py  C    7    0.0067   -0.0154    0.0039   -0.0020    0.0148    0.0005   -0.0027   -0.0045
  Pz  C    7   -0.0023   -0.0074   -0.0125    0.0060    0.0061    0.0033    0.0017    0.0007
  S   H    8    0.0318   -0.0096   -0.0326   -0.0209    0.0245   -0.0141    0.0316   -0.0022
  S   H    9    0.0366   -0.0112   -0.0340   -0.0260    0.0254   -0.0231    0.0352   -0.0057
  S   C   10    0.0204   -0.0144   -0.0714    0.0009    0.0149   -0.0053    0.0357   -0.0052
  Px  C   10   -0.0067    0.0014    0.0083    0.0041   -0.0145   -0.0040   -0.0140   -0.0130
  Py  C   10    0.0191   -0.0100   -0.0136   -0.0150    0.0211   -0.0140    0.0143   -0.0025
  Pz  C   10   -0.0187    0.0065    0.0105    0.0165   -0.0168    0.0149   -0.0155    0.0033
  S   C   11   -0.0105    0.0043   -0.0343    0.0219   -0.0011    0.0251    0.0119    0.0236
  Px  C   11   -0.0046   -0.0027   -0.0057    0.0080   -0.0144    0.0051   -0.0007   -0.0122
  Py  C   11    0.0122   -0.0052   -0.0199   -0.0076    0.0141   -0.0091    0.0127   -0.0003
  Pz  C   11   -0.0127    0.0052    0.0158    0.0095   -0.0115    0.0106   -0.0130    0.0041
  S   H   12   -0.0008    0.0053   -0.0174    0.0041    0.0144    0.0074    0.0083    0.0240
  S   C   13   -0.0324    0.0104    0.0129    0.0341   -0.0329    0.0398   -0.0163    0.0139
  Px  C   13   -0.0114    0.0020    0.0117    0.0094   -0.0178    0.0093   -0.0090   -0.0093
  Py  C   13   -0.0010    0.0009   -0.0119    0.0045    0.0016    0.0035    0.0027    0.0053
  Pz  C   13    0.0031   -0.0015    0.0047   -0.0040    0.0009   -0.0043   -0.0017   -0.0031
  S   H   14   -0.0089    0.0026    0.0050    0.0104   -0.0090    0.0132   -0.0052    0.0088
  S   C   15   -0.0397    0.0107    0.0384    0.0339   -0.0500    0.0377   -0.0298   -0.0085
  Px  C   15    0.0020   -0.0008    0.0035   -0.0040    0.0001   -0.0066   -0.0027   -0.0079
  Py  C   15   -0.0071    0.0017   -0.0045    0.0097   -0.0103    0.0067   -0.0056   -0.0022
  Pz  C   15    0.0078   -0.0020   -0.0080   -0.0055    0.0092   -0.0057    0.0052    0.0034
  S   H   16   -0.0136    0.0037    0.0176    0.0104   -0.0171    0.0128   -0.0109   -0.0032
  S   C   17   -0.0092   -0.0016   -0.0241    0.0155   -0.0249   -0.0071   -0.0165   -0.0251
  Px  C   17   -0.0034    0.0032    0.0164   -0.0028   -0.0032   -0.0082   -0.0164   -0.0033
  Py  C   17    0.0132   -0.0050   -0.0181   -0.0091    0.0148   -0.0129    0.0087    0.0016
  Pz  C   17   -0.0121    0.0035    0.0096    0.0108   -0.0139    0.0095   -0.0130   -0.0037
  S   H   18    0.0009   -0.0014   -0.0137    0.0004   -0.0059   -0.0188   -0.0148   -0.0131
  S   C   19   -0.0339    0.0083    0.0259    0.0290   -0.0488    0.0196   -0.0358   -0.0243
  Px  C   19    0.0100   -0.0021   -0.0044   -0.0101    0.0120   -0.0124    0.0027   -0.0005
  Py  C   19    0.0020   -0.0013   -0.0169    0.0025   -0.0014   -0.0072   -0.0043   -0.0048
  Pz  C   19   -0.0034    0.0014    0.0058    0.0031   -0.0030    0.0063   -0.0022    0.0028
  S   H   20   -0.0110    0.0031    0.0125    0.0083   -0.0168    0.0051   -0.0139   -0.0114
  S   O   21    0.2230    0.1018    0.1893    0.6596    0.0546   -0.3422    0.2385   -0.0064
  Px  O   21   -0.0171   -0.0077   -0.0125   -0.0417   -0.0029    0.0190   -0.0122    0.0001
  Py  O   21   -0.0598   -0.0270   -0.0496   -0.1721   -0.0142    0.0880   -0.0609    0.0016
  Pz  O   21    0.0134    0.0060    0.0113    0.0395    0.0033   -0.0204    0.0142   -0.0004
  S   H   22    0.0794    0.0357    0.0634    0.2175    0.0173   -0.1080    0.0733   -0.0017
  S   H   23    0.0899    0.0405    0.0750    0.2608    0.0217   -0.1342    0.0931   -0.0025
  S   O   24   -0.0469    0.1807   -0.0684    0.0098    0.4674    0.0623   -0.0367    0.6563
  Px  O   24    0.0025   -0.0093    0.0029   -0.0003   -0.0228   -0.0026    0.0020   -0.0254
  Py  O   24   -0.0132    0.0482   -0.0175    0.0026    0.1191    0.0158   -0.0094    0.1525
  Pz  O   24    0.0041   -0.0141    0.0058   -0.0011   -0.0353   -0.0052    0.0023   -0.0535
  S   H   25   -0.0192    0.0726   -0.0259    0.0036    0.1780    0.0231   -0.0142    0.2169
  S   H   26   -0.0200    0.0741   -0.0279    0.0042    0.1811    0.0245   -0.0134    0.2441
  S   O   27   -0.0475   -0.0079   -0.0052    0.0197   -0.0033   -0.1571   -0.2806    0.0167
  Px  O   27   -0.0078   -0.0018    0.0016    0.0062   -0.0006   -0.0086   -0.0317    0.0013
  Py  O   27   -0.0076   -0.0003   -0.0067   -0.0027   -0.0004   -0.0739   -0.0990    0.0061
  Pz  O   27   -0.0036   -0.0013    0.0027    0.0060   -0.0009    0.0126   -0.0011   -0.0038
  S   H   28   -0.0160   -0.0025   -0.0025    0.0055   -0.0009   -0.0584   -0.0984    0.0070
  S   H   29   -0.0157   -0.0022   -0.0042    0.0046   -0.0014   -0.0692   -0.1122    0.0039
  S   O   30    0.0079    0.0123   -0.0318   -0.0253   -0.0061   -0.2426   -0.3054   -0.1135
  Px  O   30    0.0033    0.0018   -0.0079   -0.0069   -0.0013   -0.0583   -0.0709   -0.0230
  Py  O   30   -0.0005    0.0005   -0.0000    0.0000    0.0011   -0.0005   -0.0015   -0.0022
  Pz  O   30   -0.0010   -0.0015    0.0062    0.0039    0.0020    0.0435    0.0553    0.0203
  S   H   31    0.0055    0.0045   -0.0134   -0.0116   -0.0023   -0.0963   -0.1156   -0.0364
  S   H   32    0.0023    0.0043   -0.0123   -0.0089   -0.0026   -0.0905   -0.1143   -0.0415
  S   O   33   -0.0254   -0.0144    0.0591    0.0718   -0.0035    0.4431    0.4434   -0.0406
  Px  O   33    0.0052    0.0028   -0.0126   -0.0144    0.0010   -0.0897   -0.0900    0.0086
  Py  O   33   -0.0028   -0.0017    0.0053    0.0075   -0.0001    0.0416    0.0394   -0.0024
  Pz  O   33    0.0072    0.0027   -0.0115   -0.0142    0.0013   -0.0770   -0.0726    0.0092
  S   H   34   -0.0121   -0.0055    0.0193    0.0257   -0.0014    0.1355    0.1250   -0.0115
  S   H   35   -0.0106   -0.0055    0.0243    0.0277   -0.0018    0.1708    0.1702   -0.0163
  S   O   36    0.0952    0.0381   -0.0818   -0.1829    0.0277   -0.3387    0.1358    0.0876
  Px  O   36   -0.0017   -0.0002   -0.0016   -0.0026    0.0006   -0.0151   -0.0046    0.0058
  Py  O   36    0.0255    0.0100   -0.0218   -0.0476    0.0073   -0.0876    0.0343    0.0217
  Pz  O   36   -0.0106   -0.0042    0.0072    0.0173   -0.0025    0.0265   -0.0161   -0.0061
  S   H   37    0.0314    0.0129   -0.0294   -0.0639    0.0097   -0.1273    0.0370    0.0322
  S   H   38    0.0453    0.0175   -0.0349   -0.0786    0.0116   -0.1329    0.0632    0.0308
  S   O   39    0.5269    0.2661    0.0172   -0.1427   -0.1022    0.2669   -0.2035    0.0028
  Px  O   39   -0.0278   -0.0154   -0.0055   -0.0006    0.0087   -0.0285    0.0288   -0.0018
  Py  O   39    0.1357    0.0689    0.0111   -0.0219   -0.0287    0.0837   -0.0734    0.0030
  Pz  O   39   -0.0164   -0.0094   -0.0027    0.0010    0.0051   -0.0151    0.0147   -0.0009
  S   H   40    0.2243    0.1113    0.0110   -0.0481   -0.0414    0.1124   -0.0899    0.0022
  S   H   41    0.1801    0.0913    0.0086   -0.0425   -0.0360    0.0969   -0.0777    0.0019
  S   O   42   -0.0462    0.0223    0.8058   -0.2731    0.1185   -0.0776    0.0101    0.0072
  Px  O   42   -0.0100    0.0048    0.1701   -0.0573    0.0246   -0.0160    0.0021    0.0014
  Py  O   42   -0.0073    0.0034    0.1171   -0.0389    0.0162   -0.0105    0.0011    0.0008
  Pz  O   42    0.0035   -0.0018   -0.0704    0.0246   -0.0112    0.0074   -0.0013   -0.0008
  S   H   43   -0.0159    0.0078    0.2800   -0.0950    0.0413   -0.0270    0.0039    0.0025
  S   H   44   -0.0181    0.0083    0.2846   -0.0943    0.0392   -0.0252    0.0027    0.0019
  S   O   45   -0.0090    0.0124    0.0168    0.0061    0.0120    0.0800    0.0955    0.0255
  Px  O   45   -0.0008    0.0023   -0.0007   -0.0004    0.0010   -0.0054   -0.0074   -0.0041
  Py  O   45    0.0027   -0.0037   -0.0043   -0.0017   -0.0032   -0.0209   -0.0246   -0.0063
  Pz  O   45   -0.0006    0.0003    0.0017    0.0007    0.0002    0.0075    0.0090    0.0034
  S   H   46   -0.0030    0.0055    0.0031    0.0007    0.0037    0.0105    0.0109   -0.0003
  S   H   47   -0.0034    0.0037    0.0072    0.0030    0.0040    0.0354    0.0423    0.0124
  S   O   48    0.1468   -0.3707    0.0585   -0.0040   -0.3026   -0.0284    0.0156    0.2017
  Px  O   48    0.0229   -0.0610    0.0102   -0.0008   -0.0592   -0.0054    0.0043    0.0518
  Py  O   48    0.0093   -0.0256    0.0046   -0.0004   -0.0274   -0.0027    0.0017    0.0246
  Pz  O   48   -0.0330    0.0826   -0.0129    0.0009    0.0662    0.0062   -0.0035   -0.0425
  S   H   49    0.0503   -0.1272    0.0202   -0.0014   -0.1051   -0.0099    0.0055    0.0704
  S   H   50    0.0537   -0.1345    0.0208   -0.0015   -0.1071   -0.0097    0.0062    0.0696
  S   O   51    0.3178    0.1365   -0.1268   -0.3619    0.0200   -0.2563    0.4105   -0.0474
  Px  O   51    0.0450    0.0190   -0.0200   -0.0553    0.0041   -0.0445    0.0642   -0.0058
  Py  O   51    0.0826    0.0349   -0.0315   -0.0889    0.0047   -0.0597    0.0972   -0.0113
  Pz  O   51   -0.0225   -0.0103    0.0081    0.0252   -0.0006    0.0172   -0.0277    0.0032
  S   H   52    0.1304    0.0551   -0.0536   -0.1498    0.0095   -0.1115    0.1681   -0.0167
  S   H   53    0.1333    0.0572   -0.0460   -0.1344    0.0048   -0.0822    0.1397   -0.0168
  S   O   54    0.3788    0.1794    0.0984    0.1726   -0.0515    0.1624   -0.2111    0.0291
  Px  O   54   -0.0557   -0.0265   -0.0144   -0.0247    0.0078   -0.0246    0.0317   -0.0043
  Py  O   54    0.0423    0.0194    0.0193    0.0474   -0.0032    0.0102   -0.0238    0.0051
  Pz  O   54   -0.0441   -0.0245   -0.0082   -0.0085    0.0099   -0.0248    0.0276   -0.0040
  S   H   55    0.1520    0.0732    0.0373    0.0620   -0.0220    0.0666   -0.0837    0.0113
  S   H   56    0.1208    0.0547    0.0362    0.0734   -0.0124    0.0405   -0.0596    0.0086
  S   O   57   -0.0860    0.2760   -0.0560    0.0060    0.3988    0.0357   -0.0387   -0.4836
  Px  O   57   -0.0203    0.0657   -0.0134    0.0015    0.0956    0.0085   -0.0093   -0.1133
  Py  O   57   -0.0070    0.0224   -0.0036    0.0003    0.0273    0.0017   -0.0031   -0.0752
  Pz  O   57    0.0100   -0.0265    0.0039   -0.0003   -0.0195   -0.0014    0.0011    0.0182
  S   H   58   -0.0419    0.1221   -0.0210    0.0020    0.1330    0.0110   -0.0115   -0.1547
  S   H   59   -0.0245    0.0850   -0.0184    0.0021    0.1381    0.0123   -0.0142   -0.1755
  S   O   60    0.0582    0.0081   -0.0433   -0.0587    0.0166   -0.1833   -0.1100    0.0586
  Px  O   60    0.0117    0.0013   -0.0084   -0.0115    0.0041   -0.0320   -0.0152    0.0155
  Py  O   60    0.0013    0.0008   -0.0030   -0.0030    0.0001   -0.0207   -0.0228   -0.0034
  Pz  O   60   -0.0093   -0.0011    0.0058    0.0081   -0.0025    0.0201    0.0080   -0.0088
  S   H   61    0.0222    0.0031   -0.0169   -0.0226    0.0064   -0.0721   -0.0449    0.0218
  S   H   62    0.0169    0.0016   -0.0092   -0.0133    0.0046   -0.0257   -0.0027    0.0163
  S   O   63    0.0587   -0.0707    0.0065   -0.0173   -0.0669   -0.0246    0.0102   -0.0631
  Px  O   63    0.0052   -0.0068    0.0009   -0.0014   -0.0076   -0.0021    0.0009   -0.0076
  Py  O   63    0.0136   -0.0160    0.0014   -0.0038   -0.0141   -0.0053    0.0021   -0.0120
  Pz  O   63    0.0014   -0.0018    0.0002   -0.0006   -0.0024   -0.0010    0.0004   -0.0035
  S   H   64    0.0201   -0.0229    0.0016   -0.0056   -0.0180   -0.0074    0.0029   -0.0132
  S   H   65    0.0203   -0.0247    0.0025   -0.0058   -0.0239   -0.0083    0.0034   -0.0222
  S   O   66    0.0013    0.0002   -0.0023   -0.0012    0.0027   -0.0013    0.0012    0.0008
  Px  O   66   -0.0003    0.0001    0.0005    0.0002   -0.0004    0.0003   -0.0003   -0.0001
  Py  O   66    0.0000    0.0001   -0.0001   -0.0000    0.0002   -0.0000    0.0000    0.0001
  Pz  O   66    0.0003   -0.0001   -0.0004   -0.0002    0.0004   -0.0003    0.0002    0.0001
  S   H   67   -0.0000    0.0001   -0.0001   -0.0000    0.0002    0.0000   -0.0000    0.0001
  S   H   68    0.0006   -0.0001   -0.0009   -0.0005    0.0009   -0.0005    0.0005    0.0002
  S   H   69   -0.0493    0.0866    0.0085    0.0021   -0.0753   -0.0077    0.0041    0.0188
  S   H   70    0.0278   -0.0360   -0.0192   -0.0077    0.0395   -0.0054    0.0131   -0.0097


   Root No.      17        18        19        20        21        22        23        24

                17 A      18 A      19 A      20 A      21 A      22 A      23 A      24 A   

               -28.266   -28.177   -28.085   -27.941   -25.990   -25.336   -22.928   -21.385
  
  S   C    1   -0.0074    0.0104    0.0032   -0.0429    0.0161   -0.2010    0.2967    0.0673
  Px  C    1    0.0026    0.0049   -0.0085   -0.0577    0.0016   -0.0515    0.0016   -0.0233
  Py  C    1    0.0074    0.0067   -0.0069   -0.0759    0.0079   -0.1021    0.1128    0.0328
  Pz  C    1   -0.0066   -0.0083    0.0090    0.0889   -0.0069    0.1238   -0.1345   -0.0182
  S   O    2   -0.0190   -0.0098    0.0235    0.1647   -0.0059    0.1681   -0.2218   -0.0431
  Px  O    2   -0.0036    0.0000    0.0012    0.0112   -0.0015   -0.0008    0.0062   -0.0069
  Py  O    2   -0.0028   -0.0014    0.0052    0.0248    0.0042   -0.0112    0.0525    0.0266
  Pz  O    2    0.0076   -0.0008   -0.0053   -0.0265   -0.0021    0.0187   -0.0682   -0.0194
  S   N    3    0.0033    0.0115   -0.0141   -0.1085    0.0074   -0.0478   -0.0872   -0.0282
  Px  N    3   -0.0013   -0.0164    0.0042    0.1205   -0.0181    0.2859   -0.3100   -0.0339
  Py  N    3    0.0058    0.0112   -0.0019   -0.0844    0.0126   -0.1027    0.0140    0.0156
  Pz  N    3   -0.0047   -0.0046   -0.0010    0.0349   -0.0054    0.0391    0.0002    0.0023
  S   H    4    0.0070    0.0075    0.0029   -0.0506    0.0060   -0.0271   -0.0484   -0.0053
  S   C    5   -0.0097   -0.0399    0.0101    0.3016   -0.0261    0.4150   -0.1752    0.0321
  Px  C    5   -0.0001   -0.0044    0.0046    0.0473    0.0109    0.0166    0.0597    0.0632
  Py  C    5    0.0036    0.0137   -0.0076   -0.1031    0.0060    0.0282   -0.2003   -0.0030
  Pz  C    5    0.0009    0.0030   -0.0008   -0.0268   -0.0018   -0.0473   -0.0102   -0.0086
  S   H    6   -0.0041   -0.0186    0.0049    0.1323   -0.0157    0.1597   -0.0780    0.0051
  S   C    7   -0.0153   -0.0576    0.0265    0.4347   -0.0113    0.1351    0.3726    0.0411
  Px  C    7    0.0028    0.0024    0.0007    0.0169    0.0536   -0.0318    0.0186    0.1221
  Py  C    7   -0.0005    0.0022   -0.0029    0.0028   -0.0008    0.1777   -0.0890    0.0488
  Pz  C    7    0.0014   -0.0123    0.0017    0.0775   -0.0107   -0.0252   -0.0369   -0.0393
  S   H    8   -0.0113   -0.0259    0.0128    0.1738   -0.0288    0.0530    0.1847   -0.0413
  S   H    9   -0.0052   -0.0184    0.0124    0.1681    0.0198    0.0608    0.1855    0.0854
  S   C   10   -0.0004   -0.0519    0.0184    0.2997    0.0293   -0.2826    0.0583   -0.0280
  Px  C   10    0.0020    0.0238   -0.0061   -0.0597    0.2292    0.0008   -0.0701    0.3367
  Py  C   10   -0.0068   -0.0060    0.0056    0.1180    0.0282    0.1042    0.1494    0.0866
  Pz  C   10    0.0055    0.0049   -0.0059   -0.1031   -0.0457   -0.0601   -0.1823   -0.0814
  S   C   11    0.0082   -0.0475    0.0077    0.0489   -0.3730   -0.2528   -0.1833   -0.2681
  Px  C   11    0.0052   -0.0065    0.0001   -0.0045    0.0391   -0.0502   -0.0093    0.0345
  Py  C   11   -0.0051   -0.0094    0.0062    0.1221    0.0713   -0.0652    0.0529   -0.1565
  Pz  C   11    0.0048    0.0085   -0.0063   -0.1201   -0.0892    0.0754   -0.0727    0.1758
  S   H   12   -0.0014   -0.0191    0.0048    0.0496   -0.1677   -0.0971   -0.0603   -0.1742
  S   C   13    0.0184   -0.0190   -0.0075   -0.2271   -0.4302    0.0910   -0.0466    0.3324
  Px  C   13    0.0060    0.0047   -0.0047   -0.0911    0.0424    0.1122    0.1227    0.0011
  Py  C   13    0.0005   -0.0083    0.0020    0.0251   -0.0498   -0.0981   -0.1129   -0.1147
  Pz  C   13   -0.0015    0.0082   -0.0015   -0.0142    0.0429    0.0943    0.1017    0.1534
  S   H   14    0.0057   -0.0065   -0.0026   -0.0809   -0.1929    0.0483   -0.0139    0.2334
  S   C   15    0.0186    0.0102   -0.0153   -0.3225   -0.0752    0.3509    0.2927   -0.0170
  Px  C   15   -0.0042    0.0153   -0.0015    0.0093    0.2138    0.0371    0.0563   -0.3260
  Py  C   15    0.0028    0.0016   -0.0021   -0.0406    0.0190   -0.0114   -0.0606   -0.0215
  Pz  C   15   -0.0028   -0.0028    0.0023    0.0404   -0.0539    0.0065    0.0521    0.0965
  S   H   16    0.0063    0.0055   -0.0059   -0.1238   -0.0317    0.1782    0.1918   -0.0122
  S   C   17    0.0004    0.0269   -0.0043    0.0164    0.4409   -0.1535   -0.1802    0.2937
  Px  C   17   -0.0054    0.0321   -0.0069   -0.0701    0.0804    0.0991   -0.0295    0.0033
  Py  C   17   -0.0050   -0.0061    0.0052    0.1062   -0.0412   -0.0573    0.0283    0.1791
  Pz  C   17   -0.0007    0.0113   -0.0046   -0.0868    0.0444    0.0474   -0.0423   -0.1216
  S   H   18   -0.0048    0.0298   -0.0037    0.0298    0.2131   -0.0572   -0.0778    0.2208
  S   C   19    0.0065    0.0446   -0.0164   -0.2411    0.3756    0.1868    0.0246   -0.2800
  Px  C   19   -0.0091    0.0139    0.0012    0.0596    0.0587   -0.0222   -0.0313   -0.0534
  Py  C   19   -0.0042    0.0084    0.0005    0.0398    0.1060   -0.1091   -0.1487    0.1528
  Pz  C   19    0.0018   -0.0029   -0.0014   -0.0513   -0.1039    0.1128    0.1433   -0.1180
  S   H   20   -0.0020    0.0304   -0.0076   -0.0893    0.1818    0.0956    0.0242   -0.1895
  S   O   21   -0.0998   -0.0458   -0.1685   -0.0026   -0.0003   -0.0011    0.0021   -0.0003
  Px  O   21    0.0030    0.0011    0.0031    0.0003   -0.0000    0.0006   -0.0002    0.0001
  Py  O   21    0.0245    0.0112    0.0406    0.0006    0.0000   -0.0001    0.0002   -0.0001
  Pz  O   21   -0.0059   -0.0027   -0.0099   -0.0002   -0.0000   -0.0001   -0.0000    0.0000
  S   H   22   -0.0268   -0.0119   -0.0420   -0.0009   -0.0000   -0.0007    0.0002   -0.0000
  S   H   23   -0.0381   -0.0175   -0.0637   -0.0007   -0.0001    0.0004   -0.0003    0.0001
  S   O   24   -0.1122    0.0851   -0.0026   -0.0395    0.0515    0.0078    0.0182    0.0151
  Px  O   24    0.0045   -0.0042    0.0003    0.0024   -0.0124   -0.0021   -0.0083   -0.0056
  Py  O   24   -0.0261    0.0199   -0.0007   -0.0093    0.0131    0.0017    0.0027   -0.0030
  Pz  O   24    0.0089   -0.0057   -0.0000    0.0010    0.0084    0.0025    0.0106    0.0159
  S   H   25   -0.0372    0.0290   -0.0012   -0.0151    0.0222    0.0036    0.0098    0.0088
  S   H   26   -0.0414    0.0297   -0.0006   -0.0108    0.0005   -0.0007   -0.0098   -0.0135
  S   O   27   -0.0983   -0.2480    0.0625   -0.0196   -0.0156    0.0031    0.0046   -0.0080
  Px  O   27   -0.0215   -0.0381    0.0118   -0.0022   -0.0096    0.0012    0.0048   -0.0119
  Py  O   27   -0.0209   -0.0695    0.0154   -0.0066    0.0008    0.0003   -0.0011    0.0070
  Pz  O   27   -0.0196    0.0012    0.0050    0.0018    0.0051   -0.0004   -0.0025    0.0079
  S   H   28   -0.0292   -0.0876    0.0206   -0.0073   -0.0081    0.0013    0.0030   -0.0071
  S   H   29   -0.0388   -0.0761    0.0207   -0.0055    0.0040   -0.0002   -0.0030    0.0098
  S   O   30   -0.3116    0.6231   -0.0421    0.0802   -0.1070   -0.0010    0.0138   -0.0146
  Px  O   30   -0.0668    0.1290   -0.0083    0.0181   -0.0315    0.0016    0.0084   -0.0177
  Py  O   30   -0.0065    0.0127   -0.0006    0.0069   -0.0143   -0.0059   -0.0001    0.0257
  Pz  O   30    0.0545   -0.1077    0.0072   -0.0139   -0.0008    0.0029    0.0079   -0.0219
  S   H   31   -0.1024    0.1986   -0.0131    0.0228   -0.0256    0.0042    0.0054   -0.0214
  S   H   32   -0.1134    0.2230   -0.0147    0.0303   -0.0228   -0.0038   -0.0029    0.0192
  S   O   33   -0.0050    0.2874   -0.0414    0.0430   -0.0272   -0.0104   -0.0010    0.0150
  Px  O   33    0.0007   -0.0605    0.0089   -0.0070    0.0003   -0.0003   -0.0002    0.0043
  Py  O   33   -0.0005    0.0152   -0.0018    0.0034   -0.0017   -0.0005    0.0001   -0.0036
  Pz  O   33    0.0074   -0.0587    0.0073   -0.0078    0.0054    0.0021    0.0005   -0.0053
  S   H   34   -0.0089    0.0700   -0.0079    0.0115   -0.0063   -0.0018    0.0000   -0.0018
  S   H   35   -0.0025    0.1139   -0.0165    0.0143   -0.0041   -0.0013   -0.0001   -0.0006
  S   O   36    0.6404    0.2562   -0.2182   -0.0298   -0.0256    0.0006   -0.0075   -0.0146
  Px  O   36    0.0381    0.0114   -0.0156   -0.0022   -0.0021   -0.0005   -0.0075   -0.0051
  Py  O   36    0.1583    0.0625   -0.0530   -0.0061   -0.0045    0.0003    0.0010    0.0020
  Pz  O   36   -0.0443   -0.0189    0.0134    0.0042    0.0074   -0.0017   -0.0037    0.0083
  S   H   37    0.2295    0.0851   -0.0781   -0.0101   -0.0051   -0.0007   -0.0057   -0.0004
  S   H   38    0.2275    0.0933   -0.0729   -0.0103   -0.0074    0.0012    0.0054    0.0009
  S   O   39   -0.0816   -0.0834   -0.4806    0.0123    0.0006   -0.0026   -0.0037   -0.0002
  Px  O   39   -0.0036    0.0053    0.0494   -0.0057   -0.0001    0.0009    0.0030    0.0001
  Py  O   39   -0.0043   -0.0176   -0.1266    0.0103    0.0002   -0.0003   -0.0011    0.0004
  Pz  O   39   -0.0007    0.0031    0.0273   -0.0013   -0.0003    0.0011    0.0039   -0.0002
  S   H   40   -0.0184   -0.0258   -0.1588    0.0080    0.0001    0.0003    0.0012    0.0002
  S   H   41   -0.0209   -0.0266   -0.1636    0.0066    0.0002   -0.0012   -0.0025    0.0000
  S   O   42   -0.0090   -0.0109    0.0056    0.0900   -0.0090   -0.0198   -0.0079    0.0086
  Px  O   42   -0.0018   -0.0020    0.0010    0.0167   -0.0005   -0.0018    0.0003   -0.0017
  Py  O   42   -0.0010   -0.0012    0.0005    0.0076   -0.0001    0.0025    0.0034   -0.0057
  Pz  O   42    0.0011    0.0012   -0.0007   -0.0125    0.0013    0.0068    0.0054   -0.0064
  S   H   43   -0.0032   -0.0036    0.0020    0.0319   -0.0028   -0.0079   -0.0040    0.0043
  S   H   44   -0.0023   -0.0028    0.0012    0.0179    0.0007    0.0049    0.0057   -0.0081
  S   O   45    0.0790   -0.1493    0.0097   -0.0233    0.0026   -0.0040    0.0044   -0.0061
  Px  O   45   -0.0079    0.0170   -0.0012    0.0008    0.0001   -0.0030    0.0004    0.0089
  Py  O   45   -0.0200    0.0375   -0.0024    0.0064   -0.0013    0.0015   -0.0002   -0.0004
[...]
  
  S  C   5  -0.01154    -0.00002    -0.00002     0.00975     0.00003     0.00143
 PX  C   5   0.00254    -0.00010     0.00001    -0.03250    -0.00008     0.00061
 PY  C   5   0.05827     0.00009    -0.00006     0.01179    -0.00008    -0.00268
 PZ  C   5   0.03996    -0.00000    -0.00014    -0.01576    -0.00005    -0.00100
  
  S  H   6  -0.01782    -0.00004     0.00014     0.00725    -0.00023    -0.00048
  
  S  C   7   0.03124    -0.00113     0.00002    -0.00261    -0.00194    -0.00653
 PX  C   7  -0.00470     0.00137     0.00001     0.00193    -0.00197     0.00059
 PY  C   7   0.03252     0.00060    -0.00002    -0.00118    -0.00060    -0.00169
 PZ  C   7   0.02047     0.00042     0.00004    -0.00008     0.00225     0.00333
  
  S  H   8  -0.00736     0.00275    -0.00005    -0.00167     0.00021     0.00590
  
  S  H   9  -0.00299     0.00011    -0.00003     0.00151     0.00486     0.00676
  
  S  C  10  -0.00328     0.00015     0.00007     0.00158     0.00019    -0.00002
 PX  C  10   0.00001     0.00005    -0.00008    -0.00058     0.00033     0.00002
 PY  C  10   0.00366     0.00028    -0.00060     0.00074     0.00141     0.00058
 PZ  C  10   0.00883     0.00002    -0.00043    -0.00255     0.00205     0.00060
  
  S  C  11   0.00035     0.00004    -0.00018    -0.00211    -0.00024    -0.00016
 PX  C  11   0.00050     0.00006    -0.00008     0.00248    -0.00014     0.00005
 PY  C  11  -0.00490    -0.00009     0.00015     0.00096     0.00003    -0.00038
 PZ  C  11  -0.00426    -0.00014     0.00041     0.00149     0.00037    -0.00028
  
  S  H  12   0.00025    -0.00002     0.00013     0.00383     0.00006     0.00005
  
  S  C  13  -0.00021     0.00000    -0.00152     0.00036    -0.00005     0.00003
 PX  C  13  -0.00011    -0.00001     0.00089     0.00004    -0.00042    -0.00005
 PY  C  13  -0.00162    -0.00005     0.00102     0.00006    -0.00184    -0.00016
 PZ  C  13  -0.00083    -0.00004    -0.00087    -0.00072    -0.00142    -0.00018
  
  S  H  14   0.00019     0.00001     0.00248     0.00009    -0.00006     0.00000
  
  S  C  15  -0.00013     0.00001     0.00034    -0.00011    -0.00014     0.00000
 PX  C  15   0.00066     0.00003    -0.00050     0.00013    -0.00010     0.00006
 PY  C  15   0.00282     0.00009    -0.00028    -0.00052     0.00059     0.00029
 PZ  C  15   0.00269     0.00007    -0.00050    -0.00048     0.00065     0.00025
  
  S  H  16  -0.00005     0.00000     0.00007     0.00011     0.00008     0.00001
  
  S  C  17   0.00134    -0.00009    -0.00005    -0.00032    -0.00301    -0.00012
 PX  C  17  -0.00113     0.00013     0.00000     0.00044    -0.00240     0.00002
 PY  C  17  -0.00209    -0.00011     0.00013     0.00020    -0.00406    -0.00028
 PZ  C  17  -0.00276    -0.00010     0.00015     0.00044    -0.00294    -0.00030
  
  S  H  18   0.00002    -0.00002     0.00002    -0.00010     0.00557    -0.00000
  
  S  C  19  -0.00030     0.00002    -0.00012     0.00008     0.00051     0.00002
 PX  C  19  -0.00026    -0.00001     0.00015     0.00010    -0.00020    -0.00002
 PY  C  19  -0.00132     0.00001     0.00030     0.00068     0.00278     0.00000
 PZ  C  19  -0.00068    -0.00003     0.00014     0.00034     0.00193    -0.00006
  
  S  H  20   0.00013    -0.00002     0.00008    -0.00008     0.00043    -0.00001
  
  S  O  21  -0.00016     0.00000     0.00000    -0.00024    -0.00000     0.00000
 PX  O  21   0.00017     0.00000    -0.00000     0.00029    -0.00000    -0.00000
 PY  O  21   0.00018    -0.00000    -0.00000     0.00044     0.00000    -0.00001
 PZ  O  21  -0.00007    -0.00000     0.00000    -0.00013    -0.00000     0.00000
  
  S  H  22   0.00072    -0.00000    -0.00000     0.00057     0.00000    -0.00001
  
  S  H  23   0.00028    -0.00000    -0.00000     0.00033     0.00000    -0.00001
  
  S  O  24   0.00023     0.00000    -0.00352    -0.00272    -0.00000     0.00000
 PX  O  24  -0.00021     0.00000     0.81949    -0.00172     0.00000     0.00000
 PY  O  24   0.00055     0.00000     0.31126    -0.00297    -0.00000     0.00001
 PZ  O  24   0.00010    -0.00000     0.48111     0.00490     0.00000    -0.00000
  
  S  H  25  -0.00055    -0.00000     0.00001     0.00075    -0.00000    -0.00001
  
  S  H  26  -0.00038    -0.00000     0.00008     0.01366     0.00000    -0.00001
  
  S  O  27   0.00001     0.00000    -0.00000     0.00000    -0.00073    -0.00002
 PX  O  27  -0.00000    -0.00000    -0.00000    -0.00000    -0.00018     0.00001
 PY  O  27   0.00001     0.00000    -0.00000     0.00000    -0.00101    -0.00002
 PZ  O  27   0.00000    -0.00000    -0.00000     0.00000    -0.00052     0.00003
  
  S  H  28  -0.00001    -0.00000     0.00000     0.00000     0.00105     0.00003
  
  S  H  29  -0.00002    -0.00000     0.00000     0.00000     0.00250     0.00003
  
  S  O  30   0.00010     0.00000    -0.00001    -0.00000    -0.00004     0.00001
 PX  O  30   0.00001     0.00000    -0.00000     0.00001    -0.00007    -0.00000
 PY  O  30  -0.00002    -0.00000     0.00001     0.00003     0.00000    -0.00000
 PZ  O  30  -0.00011    -0.00000     0.00001     0.00000     0.00009    -0.00001
  
  S  H  31  -0.00017    -0.00000     0.00002     0.00000     0.00001    -0.00001
  
  S  H  32  -0.00019    -0.00000     0.00001    -0.00001     0.00003    -0.00001
  
  S  O  33  -0.00000     0.00000    -0.00000     0.00000    -0.00020    -0.00001
 PX  O  33   0.00001    -0.00000     0.00000    -0.00001     0.00016     0.00001
 PY  O  33   0.00000     0.00000    -0.00000     0.00000    -0.00040    -0.00001
 PZ  O  33   0.00001    -0.00000    -0.00000    -0.00000     0.00021     0.00001
  
  S  H  34   0.00000    -0.00000     0.00000    -0.00000     0.00082     0.00002
  
  S  H  35   0.00001    -0.00000     0.00000    -0.00000     0.00023     0.00001
  
  S  O  36   0.00008     0.00004     0.00000    -0.00002    -0.00095    -0.00070
 PX  O  36  -0.00005    -0.00006    -0.00000     0.00002    -0.43262     0.00054
 PY  O  36   0.00013     0.00007     0.00000    -0.00004     0.34181    -0.00111
 PZ  O  36  -0.00008    -0.00006     0.00000     0.00002     0.83418     0.00070
  
  S  H  37  -0.00010    -0.00003    -0.00000     0.00002    -0.00010     0.00054
  
  S  H  38  -0.00027    -0.00008    -0.00000     0.00005    -0.00007     0.00290
  
  S  O  39   0.00071     0.00413     0.00000    -0.00027    -0.00001     0.00023
 PX  O  39   0.00016    -0.55532     0.00000    -0.00011    -0.00001    -0.00021
 PY  O  39   0.00142    -0.03160     0.00000    -0.00084     0.00000     0.00040
 PZ  O  39   0.00017     0.83093     0.00000    -0.00017    -0.00001    -0.00014
  
  S  H  40  -0.00333    -0.00006    -0.00000     0.00082     0.00001    -0.00059
  
  S  H  41  -0.00074    -0.00054    -0.00000     0.00021     0.00002    -0.00075
  
  S  O  42   0.00001     0.00000    -0.00000    -0.00000    -0.00002    -0.00004
 PX  O  42   0.00002     0.00000    -0.00001     0.00000    -0.00002    -0.00006
 PY  O  42   0.00002     0.00000    -0.00001     0.00000    -0.00002    -0.00004
 PZ  O  42   0.00001    -0.00000    -0.00000    -0.00000     0.00000     0.00002
  
  S  H  43  -0.00001    -0.00000     0.00000     0.00000     0.00003     0.00010
  
  S  H  44  -0.00004    -0.00000     0.00002    -0.00000     0.00008     0.00012
  
  S  O  45   0.00020     0.00000    -0.00004    -0.00000    -0.00000     0.00001
 PX  O  45   0.00003     0.00000     0.00003     0.00004    -0.00001     0.00000
 PY  O  45  -0.00028    -0.00000     0.00006    -0.00001     0.00000    -0.00001
 PZ  O  45   0.00002    -0.00000    -0.00003    -0.00001     0.00000    -0.00000
  
  S  H  46  -0.00047    -0.00000     0.00003    -0.00004    -0.00001    -0.00001
  
  S  H  47  -0.00046    -0.00000     0.00016    -0.00000     0.00000    -0.00001
  
  S  O  48   0.00023     0.00000    -0.00025    -0.00004     0.00000     0.00001
 PX  O  48  -0.00014     0.00000    -0.00015    -0.00093     0.00000     0.00001
 PY  O  48  -0.00041    -0.00000     0.00025     0.00017    -0.00000    -0.00001
 PZ  O  48  -0.00039    -0.00000     0.00040     0.00006    -0.00000    -0.00002
  
  S  H  49  -0.00001    -0.00000     0.00015    -0.00017    -0.00000    -0.00001
  
  S  H  50  -0.00054    -0.00000     0.00091     0.00163    -0.00001    -0.00003
  
  S  O  51   0.00026     0.00215     0.00000    -0.00002    -0.00016    -0.00079
 PX  O  51   0.00007    -0.00096     0.00000    -0.00001    -0.00027     0.07717
 PY  O  51   0.00056     0.00491     0.00000    -0.00008    -0.00022     0.24580
 PZ  O  51  -0.00003    -0.00119     0.00000     0.00003     0.00005     0.96616
  
  S  H  52  -0.00041    -0.00144    -0.00000     0.00001     0.00054    -0.00016
  
  S  H  53  -0.00078    -0.01076    -0.00000     0.00006     0.00020    -0.00007
  
  S  O  54   0.00029     0.00022     0.00000    -0.00112    -0.00000     0.00004
 PX  O  54  -0.00026    -0.00018    -0.00000     0.00093     0.00000    -0.00004
 PY  O  54   0.00016     0.00005     0.00000    -0.00101     0.00000     0.00000
 PZ  O  54  -0.00035    -0.00061    -0.00000    -0.00078    -0.00000    -0.00002
  
  S  H  55  -0.00081    -0.00122    -0.00000     0.00189     0.00000    -0.00007
  
  S  H  56  -0.00065     0.00017    -0.00000     0.00208     0.00000    -0.00009
  
  S  O  57   0.00323    -0.00000    -0.00058     0.00773     0.00000     0.00001
 PX  O  57   0.00537    -0.00000    -0.00087     0.00999     0.00000     0.00002
 PY  O  57   0.00129    -0.00000    -0.00041     0.00284     0.00000     0.00000
 PZ  O  57  -0.00707     0.00001     0.00012    -0.01329     0.00000    -0.00002
  
  S  H  58  -0.01201     0.00001     0.00142    -0.03983    -0.00000    -0.00003
  
  S  H  59  -0.00221     0.00000     0.00161    -0.00412    -0.00000    -0.00001
  
  S  O  60   0.00001     0.00000    -0.00000     0.00000    -0.00004     0.00000
 PX  O  60  -0.00001     0.00000    -0.00000     0.00000    -0.00002    -0.00000
 PY  O  60   0.00002     0.00000    -0.00000    -0.00000     0.00002     0.00000
 PZ  O  60  -0.00001    -0.00000     0.00001    -0.00000     0.00009     0.00000
  
  S  H  61  -0.00001    -0.00000     0.00001    -0.00000     0.00003    -0.00000
  
  S  H  62  -0.00000    -0.00000     0.00001    -0.00000     0.00009    -0.00000
  
  S  O  63   0.00001    -0.00000    -0.00162    -0.00011     0.00000     0.00000
 PX  O  63  -0.00001    -0.00000     0.00038     0.00005     0.00000    -0.00000
 PY  O  63   0.00002    -0.00000    -0.00304    -0.00026     0.00001     0.00000
 PZ  O  63  -0.00001     0.00000     0.00098     0.00010    -0.00000    -0.00000
  
  S  H  64  -0.00003     0.00000     0.00673     0.00038    -0.00001    -0.00000
  
  S  H  65   0.00001     0.00000     0.00151     0.00008    -0.00000    -0.00000
  
  S  O  66  -0.00000    -0.00000    -0.00000    -0.00000    -0.00000    -0.00000
 PX  O  66   0.00000     0.00000     0.00001     0.00000     0.00000     0.00000
 PY  O  66  -0.00001    -0.00000    -0.00001    -0.00000    -0.00001    -0.00000
 PZ  O  66   0.00000     0.00000    -0.00000     0.00000     0.00000     0.00000
  
  S  H  67   0.00001     0.00000     0.00000     0.00001     0.00001     0.00000
  
  S  H  68   0.00000     0.00000     0.00001     0.00000     0.00000     0.00000
  
  S  H  69  -0.00872     0.00010    -0.00001     0.05434    -0.00001     0.00003
  
  S  H  70  -0.01263    -0.00005    -0.00000    -0.00256     0.00021    -0.00004




    ROOT NO.   91          92          93

           -11.45809   -11.42609   -11.18017
  
  
  S  C   1  -0.00055     0.00051    -0.00056
 PX  C   1  -0.00309     0.00188    -0.00206
 PY  C   1  -0.00401     0.00215    -0.00216
 PZ  C   1  -0.00224     0.00177    -0.00175
  
  S  O   2  -0.00032     0.00007    -0.00010
 PX  O   2   0.00039    -0.00047     0.00050
 PY  O   2   0.00028    -0.00039     0.00046
 PZ  O   2   0.00118    -0.00084     0.00098
  
  S  N   3   0.00325    -0.00171     0.00221
 PX  N   3   0.00302    -0.00168     0.00227
 PY  N   3  -0.00180     0.00193    -0.00275
 PZ  N   3   0.00161    -0.00067     0.00085
  
  S  H   4  -0.00278     0.00162    -0.00208
  
  S  C   5  -0.02118     0.01018    -0.01306
 PX  C   5   0.00262    -0.00077     0.00142
 PY  C   5   0.01998    -0.01322     0.01643
 PZ  C   5   0.01074    -0.00662     0.00700
  
  S  H   6   0.00710     0.00002    -0.00002
  
  S  C   7   0.00404    -0.00210     0.00424
 PX  C   7  -0.00268     0.00069    -0.00002
 PY  C   7   0.02681    -0.00567     0.00227
 PZ  C   7   0.01575    -0.00161     0.00059
  
  S  H   8   0.00963    -0.00698     0.00926
  
  S  H   9   0.00929    -0.00572     0.00573
  
  S  C  10   0.03408    -0.01117     0.00975
 PX  C  10  -0.00146     0.00048     0.00006
 PY  C  10   0.41619    -0.13340     0.19265
 PZ  C  10   0.42483    -0.13790     0.20454
  
  S  C  11   0.00932     0.00288    -0.00200
 PX  C  11  -0.00256     0.00267     0.00073
 PY  C  11   0.50501     0.10334    -0.08944
 PZ  C  11   0.46006     0.09235    -0.07863
  
  S  H  12  -0.00129     0.00169    -0.00031
  
  S  C  13  -0.00714    -0.01958     0.00397
 PX  C  13   0.03724     0.07850    -0.03015
 PY  C  13   0.23845     0.47062    -0.16556
 PZ  C  13   0.19337     0.37485    -0.13121
  
  S  H  14  -0.00108     0.00282    -0.00068
  
  S  C  15  -0.00239     0.00452     0.00591
 PX  C  15  -0.02319     0.10515     0.02952
 PY  C  15  -0.10236     0.51517     0.13285
 PZ  C  15  -0.08641     0.45111     0.11349
  
  S  H  16   0.00344    -0.00337    -0.00283
  
  S  C  17  -0.01662     0.01143    -0.05298
 PX  C  17   0.00936    -0.00587     0.01375
 PY  C  17   0.10453    -0.08291     0.39702
 PZ  C  17   0.13717    -0.11311     0.52462
  
  S  H  18   0.00400    -0.00763     0.01668
  
  S  C  19   0.00217     0.00605     0.00461
 PX  C  19  -0.02234     0.03012     0.07126
 PY  C  19  -0.11588     0.17898     0.41909
 PZ  C  19  -0.13325     0.20249     0.45935
  
  S  H  20  -0.00045     0.00122     0.00141
  
  S  O  21   0.00001    -0.00000     0.00001
 PX  O  21  -0.00002     0.00001    -0.00001
 PY  O  21  -0.00001     0.00001    -0.00001
 PZ  O  21   0.00001    -0.00000     0.00000
  
  S  H  22  -0.00004     0.00002    -0.00002
  
  S  H  23   0.00000     0.00000    -0.00000
  
  S  O  24  -0.00151    -0.00064     0.00050
 PX  O  24  -0.00034    -0.00028     0.00027
 PY  O  24  -0.00189    -0.00094     0.00069
 PZ  O  24   0.00175     0.00088    -0.00066
  
  S  H  25   0.00192     0.00099    -0.00080
  
  S  H  26   0.00746     0.00220    -0.00193
  
  S  O  27   0.00006     0.00000    -0.00001
 PX  O  27  -0.00002    -0.00002     0.00024
 PY  O  27   0.00007    -0.00001    -0.00022
 PZ  O  27  -0.00001     0.00004    -0.00030
  
  S  H  28  -0.00011     0.00005    -0.00045
  
  S  H  29  -0.00025    -0.00003     0.00045
  
  S  O  30   0.00011    -0.00055    -0.00398
 PX  O  30   0.00089    -0.00009    -0.00614
 PY  O  30  -0.00079     0.00173    -0.00108
 PZ  O  30   0.00069     0.00022     0.00271
  
  S  H  31  -0.00127     0.00112     0.01481
  
  S  H  32  -0.00077     0.00045     0.01475
  
  S  O  33  -0.00009     0.00013     0.00044
 PX  O  33   0.00024    -0.00037    -0.00078
 PY  O  33   0.00009    -0.00010    -0.00013
 PZ  O  33   0.00014    -0.00024    -0.00063
  
  S  H  34   0.00003    -0.00005    -0.00083
  
  S  H  35   0.00054    -0.00061    -0.00253
  
  S  O  36   0.00030    -0.00023     0.00088
 PX  O  36  -0.00012     0.00001     0.00055
 PY  O  36   0.00040    -0.00030     0.00128
 PZ  O  36   0.00036    -0.00009    -0.00076
  
  S  H  37  -0.00067     0.00072    -0.00321
  
  S  H  38  -0.00058     0.00066    -0.00301
  
  S  O  39  -0.00008     0.00005    -0.00006
 PX  O  39   0.00003    -0.00000    -0.00000
 PY  O  39  -0.00011     0.00006    -0.00006
 PZ  O  39   0.00001     0.00003    -0.00004
  
  S  H  40   0.00027    -0.00012     0.00010
  
  S  H  41   0.00026    -0.00014     0.00013
  
  S  O  42  -0.00041     0.00466     0.00340
 PX  O  42  -0.00082     0.00645     0.00474
 PY  O  42  -0.00108     0.00821     0.00618
 PZ  O  42  -0.00048     0.00257     0.00233
  
  S  H  43   0.00023    -0.00427    -0.00264
  
  S  H  44   0.00235    -0.02754    -0.02042
  
  S  O  45  -0.00091    -0.00073    -0.00256
 PX  O  45   0.00019     0.00021    -0.00253
 PY  O  45   0.00142     0.00110     0.00338
 PZ  O  45  -0.00028    -0.00046     0.00052
  
  S  H  46   0.00145     0.00077     0.01217
  
  S  H  47   0.00337     0.00307     0.00414
  
  S  O  48  -0.00010    -0.00002    -0.00001
 PX  O  48  -0.00011    -0.00003    -0.00001
 PY  O  48   0.00012     0.00003     0.00001
 PZ  O  48   0.00018     0.00005     0.00001
  
  S  H  49   0.00006     0.00001     0.00000
  
  S  H  50   0.00049     0.00010     0.00000
  
  S  O  51  -0.00006     0.00008    -0.00001
 PX  O  51   0.00019    -0.00009     0.00028
 PY  O  51  -0.00018     0.00029    -0.00029
 PZ  O  51   0.00005     0.00000    -0.00005
  
  S  H  52  -0.00013     0.00003    -0.00053
  
  S  H  53   0.00057    -0.00032     0.00023
  
  S  O  54   0.00005    -0.00003     0.00004
 PX  O  54  -0.00004     0.00002    -0.00003
 PY  O  54   0.00006    -0.00004     0.00005
 PZ  O  54   0.00003    -0.00003     0.00004
  
  S  H  55  -0.00011     0.00007    -0.00008
  
  S  H  56  -0.00014     0.00007    -0.00008
  
  S  O  57  -0.00017     0.00000    -0.00001
 PX  O  57  -0.00026     0.00001    -0.00003
 PY  O  57  -0.00001     0.00004    -0.00004
 PZ  O  57   0.00022    -0.00006     0.00008
  
  S  H  58   0.00066    -0.00007     0.00004
  
  S  H  59   0.00023     0.00003    -0.00003
  
  S  O  60   0.00013    -0.00016    -0.00068
 PX  O  60   0.00011     0.00005    -0.00051
 PY  O  60  -0.00001    -0.00011    -0.00049
 PZ  O  60  -0.00013     0.00019     0.00063
  
  S  H  61  -0.00045     0.00038     0.00175
  
  S  H  62  -0.00037     0.00026     0.00170
  
  S  O  63  -0.00013    -0.00032     0.00013
 PX  O  63  -0.00007    -0.00021     0.00006
 PY  O  63  -0.00034    -0.00046     0.00025
 PZ  O  63   0.00007    -0.00009    -0.00000
  
  S  H  64   0.00042     0.00087    -0.00041
  
  S  H  65   0.00012     0.00115    -0.00033
  
  S  O  66   0.00004    -0.00032    -0.00004
 PX  O  66  -0.00001     0.00011    -0.00000
 PY  O  66   0.00009    -0.00062    -0.00012
 PZ  O  66  -0.00002     0.00018     0.00005
  
  S  H  67  -0.00032     0.00192     0.00015
  
  S  H  68  -0.00003     0.00024    -0.00003
  
  S  H  69   0.00094    -0.00074     0.00088
  
  S  H  70   0.00264    -0.00134     0.00228

          BONDING CONTRIBUTION OF EACH M.O.

  1.8021  1.6719  1.7191  1.9063  0.0000  1.7054  1.7066  1.8675  0.0467  1.7166
  0.0202  1.6990  0.0190  1.7394  0.0196  1.7548  0.0000  1.7107  1.6595  1.6177
  0.0378  1.9934  1.5724  1.7066  1.6608  0.1219  0.0934  0.0003  1.7193  1.7098
  1.5860  1.9952  1.6654  1.9972  1.6974  1.6722  0.0011  1.6789  1.9963  1.9967
  1.6222  1.5521  0.0284  1.9908  1.6154  1.6863  1.6906  1.7532  0.0055  1.6807
  0.0012  1.6311  1.5778  1.5057  1.8848  0.0005  0.0087  1.6908  0.0002  1.6757
  1.9927  1.9693  1.9284  1.9586  1.9562  1.9280  1.9732  2.0010  1.9457  1.9450
  1.9514  0.0001  0.1801  1.0131  0.0875  0.0005  0.1213  0.0023  0.0769  0.0000
  0.0261  0.0004  0.0227  0.0152  1.0778  0.0010  0.0005  0.2379  0.0009  0.0010
  2.0208  1.9303  2.0266 -2.0145 -2.0007 -1.9955 -1.7282 -1.9203 -1.9943 -1.7947
 -1.7467 -1.7539 -1.8085 -1.8990 -1.7164 -1.6834 -1.8926 -1.7914 -1.7802 -1.8525
 -1.8745 -1.7176 -1.8758 -1.8371 -1.8375 -1.9572 -1.7085 -1.7428 -1.8964 -1.8921
 -1.9670 -1.8669 -1.8532 -1.7451 -1.8990 -1.8652 -1.7558 -1.9443 -1.9297 -1.7469
 -1.8364 -1.6680 -1.9276 -1.8435 -1.9602 -1.8386 -1.8473 -1.7999 -1.6898 -1.7521
 -1.7500 -1.8546 -1.7129 -1.7331 -1.6215 -1.7229 -1.7577 -1.6992 -1.7081 -1.5863
 -1.6827

           DATA FOR GRAPH WRITTEN TO DISK

 **********************
 *                    *
 * JOB ENDED NORMALLY *
 *                    *
 **********************



 TOTAL JOB TIME:             0.97 SECONDS

 == MOPAC DONE ==
