 *******************************************************************************
 ** Site#: 34139        For non-commercial use only    Version 20.015L 64BITS **
 *******************************************************************************
 ** Cite this program as: MOPAC2016, Version: 20.015L, James J. P. Stewart,   **
 ** Stewart Computational Chemistry, web: HTTP://OpenMOPAC.net. Days left: 249**
 *******************************************************************************
 **                                                                           **
 **                                MOPAC2016                                  **
 **                                                                           **
 *******************************************************************************

                              PM7 CALCULATION RESULTS

 *******************************************************************************
 *  CALCULATION DONE:                                Mon May 11 10:19:32 2020  *
 *  PM7        - The PM7 Hamiltonian to be used
 *  QMMM       - Generate energies and gradients for use in MM codes
 *  DIPOLE     - PRINT DIPOLE INSTEAD OF ENERGY IN TRAJECTORIES
 *  GEO-OK     - OVERRIDE INTERATOMIC DISTANCE AND OTHER SAFETY CHECKS
 *
 *
 *
 *                 CHARGE ON SYSTEM = 0
 *
 *
 *
 *  LET        - OVERRIDE SOME SAFETY CHECKS
 *  XYZ        - CARTESIAN COORDINATE SYSTEM TO BE USED
 *  FORCE      - FORCE CALCULATION SPECIFIED
 *  1SCF       - DO 1 SCF AND THEN STOP 
 *  T=         - A TIME OF      2.0 MINUTES REQUESTED
 *  DUMP=N     - RESTART FILE WRITTEN EVERY  7200.000 SECONDS
 *  CUTOFF=    - CUTOFF FOR NDDO AND DIPOLE INTERACTIONS =  9.00A
 *  AUX        - OUTPUT AUXILIARY INFORMATION
 *  GRADIENTS  - ALL GRADIENTS TO BE PRINTED
 *  VECTORS    - FINAL EIGENVECTORS TO BE PRINTED
 *  EIGEN      - CONVERT LMO's INTO EIGENVECTORS
 *  LARGE      - EXPANDED OUTPUT TO BE PRINTED
 *  AIGOUT     - IN ARC FILE, INCLUDE AB-INITIO GEOMETRY
 *  GRAPH      - GENERATE FILE FOR GRAPHICS
 *  ALLVEC     - PRINT ALL EIGENVECTORS
 *  LOCALIZE   - LOCALIZED ORBITALS TO BE PRINTED
 *  PI         - BONDS MATRIX, SPLIT INTO SIGMA-PI-DELL COMPONENTS, TO BE PRINTED
 *******************************************************************************
PM7 XYZ T=2M 1SCF LOCALIZE AIGOUT GRAPH GRAPHF LARGE DIPOLE PI FORCE CUTOFF=9.0 AUX LET GRAD QMMM GEO-OK EIGEN VECTORS ALLVEC CHARGE=0
 Test System

   ATOM   CHEMICAL          X               Y               Z
  NUMBER   SYMBOL      (ANGSTROMS)     (ANGSTROMS)     (ANGSTROMS)
 
     1       C          0.77061600  *  -4.69640500  *   2.16389500  *
     2       O          0.82602400  *  -5.72778500  *   2.84361500  *
     3       N          1.80385800  *  -3.82793400  *   1.99534100  *
     4       H          1.61658400  *  -2.90965000  *   1.48727000  *
     5       C          3.16746500  *  -3.91888800  *   2.32884500  *
     6       H          3.23499900  *  -3.89756600  *   3.45017700  *
     7       C          3.90646600  *  -5.15937300  *   1.79264300  *
     8       H          3.48099700  *  -5.23299300  *   0.73766200  *
     9       H          5.00141700  *  -4.89733200  *   1.76447200  *
    10       C          3.63913000  *  -6.37581100  *   2.55601600  *
    11       C          3.22482300  *  -7.48698900  *   1.81953500  *
    12       H          2.95099500  *  -7.32584000  *   0.78652700  *
    13       C          3.25900800  *  -8.82947100  *   2.34797100  *
    14       H          3.16176500  *  -9.70679900  *   1.70447800  *
    15       C          3.58520200  *  -8.89742300  *   3.71978800  *
    16       H          3.56281200  *  -9.90665500  *   4.21123300  *
    17       C          4.08291300  *  -6.57267800  *   3.85457600  *
    18       H          4.31451500  *  -5.67301600  *   4.41671700  *
    19       C          4.03025600  *  -7.78767200  *   4.50458100  *
    20       H          4.31702300  *  -7.91791100  *   5.58434200  *
    21       O          1.96475100  *  -3.90196700  *  -1.09327200  *
    22       H          1.54589000  *  -3.34671200  *  -0.39285900  *
    23       H          1.34433600  *  -3.54927000  *  -1.76600100  *
    24       O          1.15140300  *  -4.21416600  *   4.99705900  *
    25       H          1.24083600  *  -4.69363900  *   4.19602900  *
    26       H          1.04726600  *  -3.30399900  *   4.83095200  *
    27       O          6.88282500  *  -3.47846400  *  -1.72837900  *
    28       H          6.78980400  *  -2.73826400  *  -0.99593200  *
    29       H          5.90341100  *  -3.71457800  *  -2.07161300  *
    30       O          8.16044500  *  -3.99157000  *   3.93185800  *
    31       H          7.75132500  *  -3.23302600  *   4.52373100  *
    32       H          7.87216300  *  -3.55765600  *   3.04764700  *
    33       O          7.95045100  *  -4.80952300  *   0.14949700  *
    34       H          7.72850600  *  -3.93936200  *   0.66555400  *
    35       H          7.50136800  *  -4.54738600  *  -0.75200500  *
    36       O          5.26881800  *  -6.56503800  *  -0.92703600  *
    37       H          5.31366800  *  -5.66393100  *  -1.24366800  *
    38       H          4.37014900  *  -6.80700400  *  -1.33289500  *
    39       O          4.42199700  *  -4.29522200  *  -2.21442200  *
    40       H          4.17014000  *  -3.88195400  *  -3.13514500  *
    41       H          3.48218300  *  -4.11425700  *  -1.78025500  *
    42       O          6.50534700  *  -6.59766800  *   1.42688200  *
    43       H          7.08780300  *  -5.95300200  *   0.91656300  *
    44       H          5.66763400  *  -6.40213200  *   0.92200700  *
    45       O          3.48342900  *  -4.34070700  *   6.28969200  *
    46       H          2.62010600  *  -4.52979400  *   5.78066000  *
    47       H          3.61628100  *  -3.38409100  *   6.05500000  *
    48       O          1.04493700  *  -1.60762500  *   4.65331700  *
    49       H          1.19023400  *  -1.31861300  *   3.68547200  *
    50       H          0.10518800  *  -1.26613900  *   4.76862600  *
    51       O          2.82638800  *  -7.54667800  *  -1.75477800  *
    52       H          2.02076600  *  -7.04878700  *  -1.31075400  *
    53       H          2.81906100  *  -6.90007100  *  -2.57645800  *
    54       O          0.84410200  *  -6.36751900  *  -0.31923800  *
    55       H          0.21466600  *  -6.10045900  *  -1.12853000  *
    56       H          1.39202500  *  -5.63112000  *  -0.31615600  *
    57       O          1.86382800  *   0.25749400  *   6.38020200  *
    58       H          1.84308300  *   1.01373200  *   5.77692800  *
    59       H          1.77222700  *  -0.49825200  *   5.65992800  *
    60       O          6.55088900  *  -6.20484200  *   4.00578100  *
    61       H          7.13195800  *  -5.35779000  *   3.97522700  *
    62       H          6.21274600  *  -6.32689600  *   3.09629900  *
    63       O          0.09381000  *  -8.27759800  *   2.31768100  *
    64       H          0.59270400  *  -7.54248300  *   2.08012000  *
    65       H         -0.62533100  *  -8.39186800  *   1.74309500  *
    66       O          5.75889200  *  -5.90074500  *   6.43806500  *
    67       H          4.87353500  *  -5.50468600  *   6.21943000  *
    68       H          6.17085100  *  -6.02741800  *   5.57630900  *
    69       H         -0.14574200  *  -4.41001400  *   1.64778800  *
    70       H          3.64928900  *  -3.00592500  *   1.97892800  *
 


          CARTESIAN COORDINATES 

    NO.       ATOM           X           Y           Z

     1         C          0.7706     -4.6964      2.1639
     2         O          0.8260     -5.7278      2.8436
     3         N          1.8039     -3.8279      1.9953
     4         H          1.6166     -2.9097      1.4873
     5         C          3.1675     -3.9189      2.3288
     6         H          3.2350     -3.8976      3.4502
     7         C          3.9065     -5.1594      1.7926
     8         H          3.4810     -5.2330      0.7377
     9         H          5.0014     -4.8973      1.7645
    10         C          3.6391     -6.3758      2.5560
    11         C          3.2248     -7.4870      1.8195
    12         H          2.9510     -7.3258      0.7865
    13         C          3.2590     -8.8295      2.3480
    14         H          3.1618     -9.7068      1.7045
    15         C          3.5852     -8.8974      3.7198
    16         H          3.5628     -9.9067      4.2112
    17         C          4.0829     -6.5727      3.8546
    18         H          4.3145     -5.6730      4.4167
    19         C          4.0303     -7.7877      4.5046
    20         H          4.3170     -7.9179      5.5843
    21         O          1.9648     -3.9020     -1.0933
    22         H          1.5459     -3.3467     -0.3929
    23         H          1.3443     -3.5493     -1.7660
    24         O          1.1514     -4.2142      4.9971
    25         H          1.2408     -4.6936      4.1960
    26         H          1.0473     -3.3040      4.8310
    27         O          6.8828     -3.4785     -1.7284
    28         H          6.7898     -2.7383     -0.9959
    29         H          5.9034     -3.7146     -2.0716
    30         O          8.1604     -3.9916      3.9319
    31         H          7.7513     -3.2330      4.5237
    32         H          7.8722     -3.5577      3.0476
    33         O          7.9505     -4.8095      0.1495
    34         H          7.7285     -3.9394      0.6656
    35         H          7.5014     -4.5474     -0.7520
    36         O          5.2688     -6.5650     -0.9270
    37         H          5.3137     -5.6639     -1.2437
    38         H          4.3701     -6.8070     -1.3329
    39         O          4.4220     -4.2952     -2.2144
    40         H          4.1701     -3.8820     -3.1351
    41         H          3.4822     -4.1143     -1.7803
    42         O          6.5053     -6.5977      1.4269
    43         H          7.0878     -5.9530      0.9166
    44         H          5.6676     -6.4021      0.9220
    45         O          3.4834     -4.3407      6.2897
    46         H          2.6201     -4.5298      5.7807
    47         H          3.6163     -3.3841      6.0550
    48         O          1.0449     -1.6076      4.6533
    49         H          1.1902     -1.3186      3.6855
    50         H          0.1052     -1.2661      4.7686
    51         O          2.8264     -7.5467     -1.7548
    52         H          2.0208     -7.0488     -1.3108
    53         H          2.8191     -6.9001     -2.5765
    54         O          0.8441     -6.3675     -0.3192
    55         H          0.2147     -6.1005     -1.1285
    56         H          1.3920     -5.6311     -0.3162
    57         O          1.8638      0.2575      6.3802
    58         H          1.8431      1.0137      5.7769
    59         H          1.7722     -0.4983      5.6599
    60         O          6.5509     -6.2048      4.0058
    61         H          7.1320     -5.3578      3.9752
    62         H          6.2127     -6.3269      3.0963
    63         O          0.0938     -8.2776      2.3177
    64         H          0.5927     -7.5425      2.0801
    65         H         -0.6253     -8.3919      1.7431
    66         O          5.7589     -5.9007      6.4381
    67         H          4.8735     -5.5047      6.2194
    68         H          6.1709     -6.0274      5.5763
    69         H         -0.1457     -4.4100      1.6478
    70         H          3.6493     -3.0059      1.9789

 General Reference for PM7:
 "Optimization of Parameters for Semiempirical Methods VI: More Modifications to the 
 NDDO Approximations and Re-optimization of Parameters", J. J. P. Stewart, J. Mol. Mod., 1:32, 19 (2013)
 http://www.springerlink.com/openurl.asp?genre=article&id=doi:10.1007/s00894-012-1667-x

           Empirical Formula: C9 H43 N O17  =    70 atoms



      MOLECULAR POINT GROUP   :   C1  


      RHF CALCULATION, NO. OF DOUBLY OCCUPIED LEVELS = 93

