 *******************************************************************************
 ** Site#: 34139        For non-commercial use only    Version 20.015L 64BITS **
 *******************************************************************************
 ** Cite this program as: MOPAC2016, Version: 20.015L, James J. P. Stewart,   **
 ** Stewart Computational Chemistry, web: HTTP://OpenMOPAC.net. Days left: 249**
 *******************************************************************************
 **                                                                           **
 **                                MOPAC2016                                  **
 **                                                                           **
 *******************************************************************************

                              PM7 CALCULATION RESULTS

 *******************************************************************************
 *  CALCULATION DONE:                                Mon May 11 10:19:32 2020  *
 *  PM7        - The PM7 Hamiltonian to be used
 *  QMMM       - Generate energies and gradients for use in MM codes
 *  DIPOLE     - PRINT DIPOLE INSTEAD OF ENERGY IN TRAJECTORIES
 *  GEO-OK     - OVERRIDE INTERATOMIC DISTANCE AND OTHER SAFETY CHECKS
 *
 *
 *
 *                 CHARGE ON SYSTEM = 0
 *
 *
 *
 *  LET        - OVERRIDE SOME SAFETY CHECKS
 *  XYZ        - CARTESIAN COORDINATE SYSTEM TO BE USED
 *  FORCE      - FORCE CALCULATION SPECIFIED
 *  1SCF       - DO 1 SCF AND THEN STOP 
 *  T=         - A TIME OF      2.0 MINUTES REQUESTED
 *  DUMP=N     - RESTART FILE WRITTEN EVERY  7200.000 SECONDS
 *  CUTOFF=    - CUTOFF FOR NDDO AND DIPOLE INTERACTIONS =  9.00A
 *  AUX        - OUTPUT AUXILIARY INFORMATION
 *  GRADIENTS  - ALL GRADIENTS TO BE PRINTED
 *  VECTORS    - FINAL EIGENVECTORS TO BE PRINTED
 *  EIGEN      - CONVERT LMO's INTO EIGENVECTORS
 *  LARGE      - EXPANDED OUTPUT TO BE PRINTED
 *  AIGOUT     - IN ARC FILE, INCLUDE AB-INITIO GEOMETRY
 *  GRAPH      - GENERATE FILE FOR GRAPHICS
 *  ALLVEC     - PRINT ALL EIGENVECTORS
 *  LOCALIZE   - LOCALIZED ORBITALS TO BE PRINTED
 *  PI         - BONDS MATRIX, SPLIT INTO SIGMA-PI-DELL COMPONENTS, TO BE PRINTED
 *******************************************************************************
PM7 XYZ T=2M 1SCF LOCALIZE AIGOUT GRAPH GRAPHF LARGE DIPOLE PI FORCE CUTOFF=9.0 AUX LET GRAD QMMM GEO-OK EIGEN VECTORS ALLVEC CHARGE=0
 Test System

   ATOM   CHEMICAL          X               Y               Z
  NUMBER   SYMBOL      (ANGSTROMS)     (ANGSTROMS)     (ANGSTROMS)
 
     1       C         -6.17887900  *  -5.00936900  *   1.18424100  *
     2       O         -6.85043700  *  -5.97648200  *   1.62843000  *
     3       N         -4.86268400  *  -4.99445200  *   0.93081400  *
     4       H         -4.43388900  *  -3.92452000  *   0.63155300  *
     5       C         -3.81028100  *  -6.03940900  *   1.18194900  *
     6       H         -3.70221000  *  -6.30721700  *   2.27805400  *
     7       C         -4.17304400  *  -7.21641200  *   0.30022500  *
     8       H         -5.21111600  *  -7.51119400  *   0.60436600  *
     9       H         -4.54344700  *  -6.82664800  *  -0.70119100  *
    10       C         -3.22777000  *  -8.34537600  *   0.30208200  *
    11       C         -2.19673800  *  -8.16174100  *  -0.64237400  *
    12       H         -2.21453500  *  -7.22203300  *  -1.24740500  *
    13       C         -1.23345200  *  -9.12581300  *  -0.82221500  *
    14       H         -0.40146800  *  -8.93423700  *  -1.49444300  *
    15       C         -1.27708800  * -10.27796700  *  -0.01236800  *
    16       H         -0.53249400  * -11.04290600  *  -0.15550000  *
    17       C         -3.21669100  *  -9.44170500  *   1.11592600  *
    18       H         -4.03301900  *  -9.54560100  *   1.82467500  *
    19       C         -2.27410400  * -10.41800700  *   0.94060500  *
    20       H         -2.22140800  * -11.23644600  *   1.64491800  *
    21       O         -0.50821800  *  -6.66226800  *  -4.68525000  *
    22       H         -0.96050600  *  -6.07267400  *  -5.40798700  *
    23       H         -0.74952200  *  -6.30715800  *  -3.80734100  *
    24       O         -6.02827800  *  -8.11318400  *  -2.09455700  *
    25       H         -6.92352000  *  -7.93379600  *  -2.53264200  *
    26       H         -5.53163400  *  -7.27482900  *  -2.37233400  *
    27       O         -4.20186000  *  -9.77260400  *  -2.97846600  *
    28       H         -5.03653000  *  -9.26657300  *  -2.87359400  *
    29       H         -3.65571700  *  -9.29912200  *  -3.60480400  *
    30       O         -0.68614500  *  -5.56900500  *  -2.45781800  *
    31       H         -0.17765200  *  -4.77782500  *  -2.73421800  *
    32       H         -1.63298700  *  -5.16777400  *  -2.55060700  *
    33       O         -4.31247500  *  -6.12387300  *  -2.76301800  *
    34       H         -4.35723100  *  -5.32410800  *  -2.21741700  *
    35       H         -4.28985100  *  -5.83712200  *  -3.71914300  *
    36       O         -1.91306200  *  -4.43982900  *   5.23242300  *
    37       H         -2.37922000  *  -3.92352300  *   4.52792200  *
    38       H         -2.15603500  *  -3.94677600  *   6.00744800  *
    39       O         -2.83753500  *  -4.13103100  *  -3.39119200  *
    40       H         -3.37798300  *  -3.64241600  *  -2.72614700  *
    41       H         -2.44269400  *  -3.36437300  *  -3.96368800  *
    42       O         -4.99980200  *  -5.90216500  *   4.23504700  *
    43       H         -4.32680500  *  -5.21727300  *   4.22190700  *
    44       H         -5.68554300  *  -5.32381000  *   4.61072900  *
    45       O         -4.23519600  *  -7.24925100  *   6.41966200  *
    46       H         -4.66690900  *  -7.12821000  *   5.53388900  *
    47       H         -3.90870700  *  -6.33293500  *   6.39511000  *
    48       O         -2.68798100  *  -8.13931500  *  -4.51144300  *
    49       H         -1.81819800  *  -7.71158900  *  -4.35179600  *
    50       H         -3.18288200  *  -7.37659400  *  -4.77868200  *
    51       O         -5.64068100  *  -8.15358200  *   3.05769300  *
    52       H         -5.31376700  *  -7.42747700  *   3.62921100  *
    53       H         -5.99719600  *  -7.58142300  *   2.33527400  *
    54       O         -3.71537300  *  -3.56501600  *   3.65990600  *
    55       H         -3.78657400  *  -3.25220500  *   2.71614800  *
    56       H         -3.95411600  *  -2.55215700  *   3.92892200  *
    57       H         -6.62169200  *  -4.04572100  *   0.93245000  *
    58       H         -2.86011200  *  -5.56725900  *   0.93224500  *
 


          CARTESIAN COORDINATES 

    NO.       ATOM           X           Y           Z

     1         C         -6.1789     -5.0094      1.1842
     2         O         -6.8504     -5.9765      1.6284
     3         N         -4.8627     -4.9945      0.9308
     4         H         -4.4339     -3.9245      0.6316
     5         C         -3.8103     -6.0394      1.1819
     6         H         -3.7022     -6.3072      2.2781
     7         C         -4.1730     -7.2164      0.3002
     8         H         -5.2111     -7.5112      0.6044
     9         H         -4.5434     -6.8266     -0.7012
    10         C         -3.2278     -8.3454      0.3021
    11         C         -2.1967     -8.1617     -0.6424
    12         H         -2.2145     -7.2220     -1.2474
    13         C         -1.2335     -9.1258     -0.8222
    14         H         -0.4015     -8.9342     -1.4944
    15         C         -1.2771    -10.2780     -0.0124
    16         H         -0.5325    -11.0429     -0.1555
    17         C         -3.2167     -9.4417      1.1159
    18         H         -4.0330     -9.5456      1.8247
    19         C         -2.2741    -10.4180      0.9406
    20         H         -2.2214    -11.2364      1.6449
    21         O         -0.5082     -6.6623     -4.6852
    22         H         -0.9605     -6.0727     -5.4080
    23         H         -0.7495     -6.3072     -3.8073
    24         O         -6.0283     -8.1132     -2.0946
    25         H         -6.9235     -7.9338     -2.5326
    26         H         -5.5316     -7.2748     -2.3723
    27         O         -4.2019     -9.7726     -2.9785
    28         H         -5.0365     -9.2666     -2.8736
    29         H         -3.6557     -9.2991     -3.6048
    30         O         -0.6861     -5.5690     -2.4578
    31         H         -0.1777     -4.7778     -2.7342
    32         H         -1.6330     -5.1678     -2.5506
    33         O         -4.3125     -6.1239     -2.7630
    34         H         -4.3572     -5.3241     -2.2174
    35         H         -4.2899     -5.8371     -3.7191
    36         O         -1.9131     -4.4398      5.2324
    37         H         -2.3792     -3.9235      4.5279
    38         H         -2.1560     -3.9468      6.0074
    39         O         -2.8375     -4.1310     -3.3912
    40         H         -3.3780     -3.6424     -2.7261
    41         H         -2.4427     -3.3644     -3.9637
    42         O         -4.9998     -5.9022      4.2350
    43         H         -4.3268     -5.2173      4.2219
    44         H         -5.6855     -5.3238      4.6107
    45         O         -4.2352     -7.2493      6.4197
    46         H         -4.6669     -7.1282      5.5339
    47         H         -3.9087     -6.3329      6.3951
    48         O         -2.6880     -8.1393     -4.5114
    49         H         -1.8182     -7.7116     -4.3518
    50         H         -3.1829     -7.3766     -4.7787
    51         O         -5.6407     -8.1536      3.0577
    52         H         -5.3138     -7.4275      3.6292
    53         H         -5.9972     -7.5814      2.3353
    54         O         -3.7154     -3.5650      3.6599
    55         H         -3.7866     -3.2522      2.7161
    56         H         -3.9541     -2.5522      3.9289
    57         H         -6.6217     -4.0457      0.9325
    58         H         -2.8601     -5.5673      0.9322

 General Reference for PM7:
 "Optimization of Parameters for Semiempirical Methods VI: More Modifications to the 
 NDDO Approximations and Re-optimization of Parameters", J. J. P. Stewart, J. Mol. Mod., 1:32, 19 (2013)
 http://www.springerlink.com/openurl.asp?genre=article&id=doi:10.1007/s00894-012-1667-x

           Empirical Formula: C9 H35 N O13  =    58 atoms



      MOLECULAR POINT GROUP   :   C1  


      RHF CALCULATION, NO. OF DOUBLY OCCUPIED LEVELS = 77


 -------------------------------------------------------------------------------
 PM7 XYZ T=2M 1SCF LOCALIZE AIGOUT GRAPH GRAPHF LARGE DIPOLE PI FORCE CUTOFF=9.0 AUX LET GRAD QMMM GEO-OK EIGEN VECTORS ALLVEC CHARGE=0
 Test System



     1SCF WAS SPECIFIED, SO BFGS WAS NOT USED                 
     SCF FIELD WAS ACHIEVED                                   


                              PM7 CALCULATION
                                                       MOPAC2016 (Version: 20.015L)
                                                       Mon May 11 10:19:33 2020
                                                       No. of days remaining = 249




          FINAL HEAT OF FORMATION =      -1082.22295 KCAL/MOL =   -4528.02084 KJ/MOL


          TOTAL ENERGY            =      -5620.82583 EV
          ELECTRONIC ENERGY       =     -41556.33565 EV  POINT GROUP:     C1  
          CORE-CORE REPULSION     =      35935.50981 EV
