 *******************************************************************************
 ** Site#: 34139        For non-commercial use only    Version 20.015L 64BITS **
 *******************************************************************************
 ** Cite this program as: MOPAC2016, Version: 20.015L, James J. P. Stewart,   **
 ** Stewart Computational Chemistry, web: HTTP://OpenMOPAC.net. Days left: 276**
 *******************************************************************************
 **                                                                           **
 **                                MOPAC2016                                  **
 **                                                                           **
 *******************************************************************************

                              PM7 CALCULATION RESULTS

 *******************************************************************************
 *  CALCULATION DONE:                                Tue Apr 14 16:44:37 2020  *
 *  PM7        - The PM7 Hamiltonian to be used
 *  QMMM       - Generate energies and gradients for use in MM codes
 *  DIPOLE     - PRINT DIPOLE INSTEAD OF ENERGY IN TRAJECTORIES
 *  GEO-OK     - OVERRIDE INTERATOMIC DISTANCE AND OTHER SAFETY CHECKS
 *
 *
 *
 *                 CHARGE ON SYSTEM = 0
 *
 *
 *
 *  LET        - OVERRIDE SOME SAFETY CHECKS
 *  XYZ        - CARTESIAN COORDINATE SYSTEM TO BE USED
 *  FORCE      - FORCE CALCULATION SPECIFIED
 *  1SCF       - DO 1 SCF AND THEN STOP 
 *  T=         - A TIME OF      2.0 MINUTES REQUESTED
 *  DUMP=N     - RESTART FILE WRITTEN EVERY  7200.000 SECONDS
 *  CUTOFF=    - CUTOFF FOR NDDO AND DIPOLE INTERACTIONS =  9.00A
 *  AUX        - OUTPUT AUXILIARY INFORMATION
 *  GRADIENTS  - ALL GRADIENTS TO BE PRINTED
 *  VECTORS    - FINAL EIGENVECTORS TO BE PRINTED
 *  EIGEN      - CONVERT LMO's INTO EIGENVECTORS
 *  LARGE      - EXPANDED OUTPUT TO BE PRINTED
 *  AIGOUT     - IN ARC FILE, INCLUDE AB-INITIO GEOMETRY
 *  GRAPH      - GENERATE FILE FOR GRAPHICS
 *  ALLVEC     - PRINT ALL EIGENVECTORS
 *  LOCALIZE   - LOCALIZED ORBITALS TO BE PRINTED
 *  PI         - BONDS MATRIX, SPLIT INTO SIGMA-PI-DELL COMPONENTS, TO BE PRINTED
 *******************************************************************************
PM7 XYZ T=2M 1SCF LOCALIZE AIGOUT GRAPH GRAPHF LARGE DIPOLE PI FORCE CUTOFF=9.0 AUX LET GRAD QMMM GEO-OK EIGEN VECTORS ALLVEC CHARGE=0
 Test System

   ATOM   CHEMICAL          X               Y               Z
  NUMBER   SYMBOL      (ANGSTROMS)     (ANGSTROMS)     (ANGSTROMS)
 
     1       C         -3.51278500  *   0.60647200  *   0.47187700  *
     2       O         -3.65824000  *  -0.55544800  *   0.97184600  *
     3       N         -2.30725300  *   0.97330200  *   0.00569800  *
     4       H         -2.11768600  *   1.99974100  *  -0.28419500  *
     5       C         -1.06867000  *   0.17622400  *   0.25452300  *
     6       H         -0.95462200  *  -0.02690500  *   1.29892300  *
     7       C         -0.98434200  *  -1.18462800  *  -0.43958100  *
     8       H         -1.83472400  *  -1.77358500  *   0.01533900  *
     9       H         -1.18465700  *  -0.97369400  *  -1.58071100  *
    10       C          0.24396900  *  -2.00298800  *  -0.36605100  *
    11       C          1.13412800  *  -1.95202200  *  -1.45469600  *
    12       H          0.76656400  *  -1.29374800  *  -2.26307700  *
    13       C          2.30567900  *  -2.60713600  *  -1.54495100  *
    14       H          3.00749200  *  -2.45729000  *  -2.38731500  *
    15       C          2.68149900  *  -3.42406200  *  -0.46638100  *
    16       H          3.71932800  *  -3.79402100  *  -0.50713700  *
    17       C          0.54092500  *  -2.91394900  *   0.73209100  *
    18       H         -0.05722400  *  -2.98429100  *   1.63744600  *
    19       C          1.75237400  *  -3.62328500  *   0.61211500  *
    20       H          1.84666600  *  -4.46436400  *   1.29111600  *
    21       O          4.46521300  *  -6.67327400  *  -1.39572000  *
    22       H          4.97730400  *  -6.36070200  *  -0.71046400  *
    23       H          4.88760600  *  -7.58577000  *  -1.70108800  *
    24       O         -4.08635500  *  -3.63032700  *   1.46105300  *
    25       H         -3.75193200  *  -3.63880500  *   0.60910200  *
    26       H         -4.70742900  *  -2.83251500  *   1.42204500  *
    27       O         -0.56340700  *  -6.00222300  *   0.00141300  *
    28       H         -1.31836000  *  -6.63818700  *   0.28280000  *
    29       H         -0.78810400  *  -5.36065300  *   0.73458200  *
    30       O         -2.18692700  *   0.64275100  *  -3.88356400  *
    31       H         -2.10157200  *   1.44952800  *  -3.35456300  *
    32       H         -2.36436800  *   1.02012700  *  -4.74595600  *
    33       O         -5.89811900  *  -1.75597400  *   2.23914800  *
    34       H         -6.60552100  *  -2.15214900  *   2.86703700  *
    35       H         -5.31625300  *  -1.32356800  *   2.79760600  *
    36       O          0.77178000  *  -2.78837700  *   5.27822800  *
    37       H          0.87722000  *  -3.73268300  *   5.21446500  *
    38       H         -0.05721600  *  -2.64295700  *   5.75976300  *
    39       O         -2.25067800  *   3.31026600  *  -2.39706400  *
    40       H         -2.62065500  *   3.37045600  *  -3.27936400  *
    41       H         -2.84880400  *   3.59297700  *  -1.67600700  *
    42       O         -0.38077200  *   0.62627800  *   3.94185800  *
    43       H         -0.37987800  *   1.58783800  *   4.12933600  *
    44       H          0.50179600  *   0.28439100  *   3.96714500  *
    45       O         -1.95012400  *  -3.74111200  *   3.09829500  *
    46       H         -2.83234300  *  -3.69131900  *   2.57504400  *
    47       H         -1.81709800  *  -2.85295600  *   3.35150200  *
    48       O         -1.58241400  *  -3.00910800  *  -3.02109000  *
    49       H         -1.65013600  *  -3.05665300  *  -3.98221300  *
    50       H         -1.86053400  *  -2.07870200  *  -2.92199900  *
    51       O         -2.45872700  *  -1.06263200  *   3.28575000  *
    52       H         -2.49381500  *  -0.70472900  *   2.38738800  *
    53       H         -1.87096800  *  -0.50978800  *   3.81614700  *
    54       O         -0.61671000  *   4.33908300  *   0.91397100  *
    55       H         -1.55312800  *   4.18413100  *   0.75244700  *
    56       H         -0.14926000  *   4.24860300  *   0.05966200  *
    57       H         -4.37068900  *   1.27176200  *   0.37445600  *
    58       H         -0.22189800  *   0.82646600  *   0.03483400  *
 


          CARTESIAN COORDINATES 

    NO.       ATOM           X           Y           Z

     1         C         -3.5128      0.6065      0.4719
     2         O         -3.6582     -0.5554      0.9718
     3         N         -2.3073      0.9733      0.0057
     4         H         -2.1177      1.9997     -0.2842
     5         C         -1.0687      0.1762      0.2545
     6         H         -0.9546     -0.0269      1.2989
     7         C         -0.9843     -1.1846     -0.4396
     8         H         -1.8347     -1.7736      0.0153
     9         H         -1.1847     -0.9737     -1.5807
    10         C          0.2440     -2.0030     -0.3661
    11         C          1.1341     -1.9520     -1.4547
    12         H          0.7666     -1.2937     -2.2631
    13         C          2.3057     -2.6071     -1.5450
    14         H          3.0075     -2.4573     -2.3873
    15         C          2.6815     -3.4241     -0.4664
    16         H          3.7193     -3.7940     -0.5071
    17         C          0.5409     -2.9139      0.7321
    18         H         -0.0572     -2.9843      1.6374
    19         C          1.7524     -3.6233      0.6121
    20         H          1.8467     -4.4644      1.2911
    21         O          4.4652     -6.6733     -1.3957
    22         H          4.9773     -6.3607     -0.7105
    23         H          4.8876     -7.5858     -1.7011
    24         O         -4.0864     -3.6303      1.4611
    25         H         -3.7519     -3.6388      0.6091
    26         H         -4.7074     -2.8325      1.4220
    27         O         -0.5634     -6.0022      0.0014
    28         H         -1.3184     -6.6382      0.2828
    29         H         -0.7881     -5.3607      0.7346
    30         O         -2.1869      0.6428     -3.8836
    31         H         -2.1016      1.4495     -3.3546
    32         H         -2.3644      1.0201     -4.7460
    33         O         -5.8981     -1.7560      2.2391
    34         H         -6.6055     -2.1521      2.8670
    35         H         -5.3163     -1.3236      2.7976
    36         O          0.7718     -2.7884      5.2782
    37         H          0.8772     -3.7327      5.2145
    38         H         -0.0572     -2.6430      5.7598
    39         O         -2.2507      3.3103     -2.3971
    40         H         -2.6207      3.3705     -3.2794
    41         H         -2.8488      3.5930     -1.6760
    42         O         -0.3808      0.6263      3.9419
    43         H         -0.3799      1.5878      4.1293
    44         H          0.5018      0.2844      3.9671
    45         O         -1.9501     -3.7411      3.0983
    46         H         -2.8323     -3.6913      2.5750
    47         H         -1.8171     -2.8530      3.3515
    48         O         -1.5824     -3.0091     -3.0211
    49         H         -1.6501     -3.0567     -3.9822
    50         H         -1.8605     -2.0787     -2.9220
    51         O         -2.4587     -1.0626      3.2858
    52         H         -2.4938     -0.7047      2.3874
    53         H         -1.8710     -0.5098      3.8161
    54         O         -0.6167      4.3391      0.9140
    55         H         -1.5531      4.1841      0.7524
    56         H         -0.1493      4.2486      0.0597
    57         H         -4.3707      1.2718      0.3745
    58         H         -0.2219      0.8265      0.0348

 General Reference for PM7:
 "Optimization of Parameters for Semiempirical Methods VI: More Modifications to the 
 NDDO Approximations and Re-optimization of Parameters", J. J. P. Stewart, J. Mol. Mod., 1:32, 19 (2013)
 http://www.springerlink.com/openurl.asp?genre=article&id=doi:10.1007/s00894-012-1667-x

           Empirical Formula: C9 H35 N O13  =    58 atoms



      MOLECULAR POINT GROUP   :   C1  


      RHF CALCULATION, NO. OF DOUBLY OCCUPIED LEVELS = 77


 -------------------------------------------------------------------------------
 PM7 XYZ T=2M 1SCF LOCALIZE AIGOUT GRAPH GRAPHF LARGE DIPOLE PI FORCE CUTOFF=9.0 AUX LET GRAD QMMM GEO-OK EIGEN VECTORS ALLVEC CHARGE=0
 Test System



     1SCF WAS SPECIFIED, SO BFGS WAS NOT USED                 
     SCF FIELD WAS ACHIEVED                                   


                              PM7 CALCULATION
                                                       MOPAC2016 (Version: 20.015L)
                                                       Tue Apr 14 16:44:38 2020
                                                       No. of days remaining = 276




          FINAL HEAT OF FORMATION =       -920.16402 KCAL/MOL =   -3849.96628 KJ/MOL


          TOTAL ENERGY            =      -5614.80587 EV
          ELECTRONIC ENERGY       =     -39817.86979 EV  POINT GROUP:     C1  
          CORE-CORE REPULSION     =      34203.06392 EV
          COSMO AREA              =        456.40 SQUARE ANGSTROMS
          COSMO VOLUME            =        561.90 CUBIC ANGSTROMS

          GRADIENT NORM           =        278.97998 = 36.63187 PER ATOM
          IONIZATION POTENTIAL    =          9.160265 EV
          HOMO LUMO ENERGIES (EV) =         -9.160  0.090
          NO. OF FILLED LEVELS    =         77
          MOLECULAR WEIGHT        =        365.3744

          MOLECULAR DIMENSIONS (Angstroms)

            Atom       Atom       Distance
            H    55    H    23    13.63941
            H    32    H    38    11.11479
            H    56    H    34     8.81065


          SCF CALCULATIONS        =          1
 
          WALL-CLOCK TIME         =          0.164 SECONDS
          COMPUTATION TIME        =          0.159 SECONDS

          LARGEST ATOMIC GRADIENTS

          Atom     Label                     Cartesian Gradients           Cartesian Coordinates       |Gradient|
                                           X          Y          Z        X          Y          Z

            11       C                  72.308    -44.644      1.261    1.13413   -1.95202   -1.45470     84.989
             1       C                   9.107     79.765    -26.391   -3.51279    0.60647    0.47188     84.510
            17       C                 -24.448    -40.486     58.649    0.54093   -2.91395    0.73209     75.343
             2       O                  -6.427    -68.598     27.738   -3.65824   -0.55545    0.97185     74.272
            21       O                 -12.632     58.677     35.957    4.46521   -6.67327   -1.39572     69.968
            10       C                 -27.445     35.448    -47.425    0.24397   -2.00299   -0.36605     65.260
            27       O                  46.492     12.086    -43.190   -0.56341   -6.00222    0.00141     64.598
            13       C                 -55.539     26.166    -16.123    2.30568   -2.60714   -1.54495     63.476
            23       H                  24.492    -48.993    -15.842    4.88761   -7.58577   -1.70109     57.019
            33       O                  46.008     28.479    -10.821   -5.89812   -1.75597    2.23915     55.181
             7       C                  33.443     -8.007     34.403   -0.98434   -1.18463   -0.43958     48.643



       FINAL  POINT  AND  DERIVATIVES

   PARAMETER     ATOM    TYPE            VALUE        GRADIENT
      1          1  C    CARTESIAN X    -3.512785      9.106950  KCAL/ANGSTROM
      2          1  C    CARTESIAN Y     0.606472     79.765246  KCAL/ANGSTROM
      3          1  C    CARTESIAN Z     0.471877    -26.390754  KCAL/ANGSTROM
      4          2  O    CARTESIAN X    -3.658240     -6.427185  KCAL/ANGSTROM
      5          2  O    CARTESIAN Y    -0.555448    -68.598233  KCAL/ANGSTROM
      6          2  O    CARTESIAN Z     0.971846     27.737571  KCAL/ANGSTROM
      7          3  N    CARTESIAN X    -2.307253    -31.558833  KCAL/ANGSTROM
      8          3  N    CARTESIAN Y     0.973302    -32.942801  KCAL/ANGSTROM
      9          3  N    CARTESIAN Z     0.005698      5.291012  KCAL/ANGSTROM
     10          4  H    CARTESIAN X    -2.117686      2.774919  KCAL/ANGSTROM
     11          4  H    CARTESIAN Y     1.999741     39.765593  KCAL/ANGSTROM
     12          4  H    CARTESIAN Z    -0.284195     -1.150766  KCAL/ANGSTROM
     13          5  C    CARTESIAN X    -1.068670      6.405363  KCAL/ANGSTROM
     14          5  C    CARTESIAN Y     0.176224    -11.147788  KCAL/ANGSTROM
     15          5  C    CARTESIAN Z     0.254523      4.275219  KCAL/ANGSTROM
     16          6  H    CARTESIAN X    -0.954622      1.688673  KCAL/ANGSTROM
     17          6  H    CARTESIAN Y    -0.026905      2.810351  KCAL/ANGSTROM
     18          6  H    CARTESIAN Z     1.298923    -34.134704  KCAL/ANGSTROM
     19          7  C    CARTESIAN X    -0.984342     33.443286  KCAL/ANGSTROM
     20          7  C    CARTESIAN Y    -1.184628     -8.007189  KCAL/ANGSTROM
     21          7  C    CARTESIAN Z    -0.439581     34.402710  KCAL/ANGSTROM
     22          8  H    CARTESIAN X    -1.834724     -0.825896  KCAL/ANGSTROM
     23          8  H    CARTESIAN Y    -1.773585      3.397930  KCAL/ANGSTROM
     24          8  H    CARTESIAN Z     0.015339     12.789928  KCAL/ANGSTROM
     25          9  H    CARTESIAN X    -1.184657      3.579355  KCAL/ANGSTROM
     26          9  H    CARTESIAN Y    -0.973694     11.075170  KCAL/ANGSTROM
     27          9  H    CARTESIAN Z    -1.580711    -30.823686  KCAL/ANGSTROM
     28         10  C    CARTESIAN X     0.243969    -27.444929  KCAL/ANGSTROM
     29         10  C    CARTESIAN Y    -2.002988     35.448476  KCAL/ANGSTROM
     30         10  C    CARTESIAN Z    -0.366051    -47.424655  KCAL/ANGSTROM
     31         11  C    CARTESIAN X     1.134128     72.307962  KCAL/ANGSTROM
     32         11  C    CARTESIAN Y    -1.952022    -44.643705  KCAL/ANGSTROM
     33         11  C    CARTESIAN Z    -1.454696      1.261450  KCAL/ANGSTROM
     34         12  H    CARTESIAN X     0.766564    -10.668725  KCAL/ANGSTROM
     35         12  H    CARTESIAN Y    -1.293748      4.931947  KCAL/ANGSTROM
     36         12  H    CARTESIAN Z    -2.263077      3.417155  KCAL/ANGSTROM
     37         13  C    CARTESIAN X     2.305679    -55.539063  KCAL/ANGSTROM
     38         13  C    CARTESIAN Y    -2.607136     26.166315  KCAL/ANGSTROM
     39         13  C    CARTESIAN Z    -1.544951    -16.122606  KCAL/ANGSTROM
     40         14  H    CARTESIAN X     3.007492      9.420971  KCAL/ANGSTROM
     41         14  H    CARTESIAN Y    -2.457290      4.054844  KCAL/ANGSTROM
     42         14  H    CARTESIAN Z    -2.387315     -6.030716  KCAL/ANGSTROM
     43         15  C    CARTESIAN X     2.681499     22.210657  KCAL/ANGSTROM
     44         15  C    CARTESIAN Y    -3.424062     -6.189448  KCAL/ANGSTROM
     45         15  C    CARTESIAN Z    -0.466381    -21.887197  KCAL/ANGSTROM
     46         16  H    CARTESIAN X     3.719328     16.904515  KCAL/ANGSTROM
     47         16  H    CARTESIAN Y    -3.794021     10.270622  KCAL/ANGSTROM
     48         16  H    CARTESIAN Z    -0.507137     -9.932442  KCAL/ANGSTROM
     49         17  C    CARTESIAN X     0.540925    -24.447697  KCAL/ANGSTROM
     50         17  C    CARTESIAN Y    -2.913949    -40.486401  KCAL/ANGSTROM
     51         17  C    CARTESIAN Z     0.732091     58.649273  KCAL/ANGSTROM
     52         18  H    CARTESIAN X    -0.057224      4.969413  KCAL/ANGSTROM
     53         18  H    CARTESIAN Y    -2.984291      1.433170  KCAL/ANGSTROM
     54         18  H    CARTESIAN Z     1.637446      8.173884  KCAL/ANGSTROM
     55         19  C    CARTESIAN X     1.752374     -2.131703  KCAL/ANGSTROM
     56         19  C    CARTESIAN Y    -3.623285     -0.559017  KCAL/ANGSTROM
     57         19  C    CARTESIAN Z     0.612115     33.448906  KCAL/ANGSTROM
     58         20  H    CARTESIAN X     1.846666    -15.849616  KCAL/ANGSTROM
     59         20  H    CARTESIAN Y    -4.464364     -2.490699  KCAL/ANGSTROM
     60         20  H    CARTESIAN Z     1.291116     -4.625009  KCAL/ANGSTROM
     61         21  O    CARTESIAN X     4.465213    -12.631981  KCAL/ANGSTROM
     62         21  O    CARTESIAN Y    -6.673274     58.677137  KCAL/ANGSTROM
     63         21  O    CARTESIAN Z    -1.395720     35.957251  KCAL/ANGSTROM
     64         22  H    CARTESIAN X     4.977304    -12.713653  KCAL/ANGSTROM
     65         22  H    CARTESIAN Y    -6.360702     -9.826567  KCAL/ANGSTROM
     66         22  H    CARTESIAN Z    -0.710464    -20.043189  KCAL/ANGSTROM
     67         23  H    CARTESIAN X     4.887606     24.492398  KCAL/ANGSTROM
     68         23  H    CARTESIAN Y    -7.585770    -48.992877  KCAL/ANGSTROM
     69         23  H    CARTESIAN Z    -1.701088    -15.842010  KCAL/ANGSTROM
     70         24  O    CARTESIAN X    -4.086355     28.364789  KCAL/ANGSTROM
     71         24  O    CARTESIAN Y    -3.630327    -19.207161  KCAL/ANGSTROM
     72         24  O    CARTESIAN Z     1.461053    -16.583404  KCAL/ANGSTROM
     73         25  H    CARTESIAN X    -3.751932    -17.236021  KCAL/ANGSTROM
     74         25  H    CARTESIAN Y    -3.638805      4.441459  KCAL/ANGSTROM
     75         25  H    CARTESIAN Z     0.609102     26.115083  KCAL/ANGSTROM
     76         26  H    CARTESIAN X    -4.707429    -11.207902  KCAL/ANGSTROM
     77         26  H    CARTESIAN Y    -2.832515     11.290316  KCAL/ANGSTROM
     78         26  H    CARTESIAN Z     1.422045    -17.558222  KCAL/ANGSTROM
     79         27  O    CARTESIAN X    -0.563407     46.491995  KCAL/ANGSTROM
     80         27  O    CARTESIAN Y    -6.002223     12.086483  KCAL/ANGSTROM
     81         27  O    CARTESIAN Z     0.001413    -43.189537  KCAL/ANGSTROM
     82         28  H    CARTESIAN X    -1.318360    -28.054934  KCAL/ANGSTROM
     83         28  H    CARTESIAN Y    -6.638187    -10.276513  KCAL/ANGSTROM
     84         28  H    CARTESIAN Z     0.282800     22.006029  KCAL/ANGSTROM
     85         29  H    CARTESIAN X    -0.788104    -17.834169  KCAL/ANGSTROM
     86         29  H    CARTESIAN Y    -5.360653     -3.416818  KCAL/ANGSTROM
     87         29  H    CARTESIAN Z     0.734582     18.244110  KCAL/ANGSTROM
     88         30  O    CARTESIAN X    -2.186927      4.347191  KCAL/ANGSTROM
     89         30  O    CARTESIAN Y     0.642751    -17.783953  KCAL/ANGSTROM
     90         30  O    CARTESIAN Z    -3.883564      1.948078  KCAL/ANGSTROM
     91         31  H    CARTESIAN X    -2.101572     -5.424502  KCAL/ANGSTROM
     92         31  H    CARTESIAN Y     1.449528     11.240122  KCAL/ANGSTROM
     93         31  H    CARTESIAN Z    -3.354563    -11.703243  KCAL/ANGSTROM
     94         32  H    CARTESIAN X    -2.364368     -0.738948  KCAL/ANGSTROM
     95         32  H    CARTESIAN Y     1.020127     11.382312  KCAL/ANGSTROM
     96         32  H    CARTESIAN Z    -4.745956      7.222315  KCAL/ANGSTROM
     97         33  O    CARTESIAN X    -5.898119     46.008426  KCAL/ANGSTROM
     98         33  O    CARTESIAN Y    -1.755974     28.478874  KCAL/ANGSTROM
     99         33  O    CARTESIAN Z     2.239148    -10.820848  KCAL/ANGSTROM
    100         34  H    CARTESIAN X    -6.605521    -24.598766  KCAL/ANGSTROM
    101         34  H    CARTESIAN Y    -2.152149     -9.388362  KCAL/ANGSTROM
    102         34  H    CARTESIAN Z     2.867037     25.407608  KCAL/ANGSTROM
    103         35  H    CARTESIAN X    -5.316253    -28.011730  KCAL/ANGSTROM
    104         35  H    CARTESIAN Y    -1.323568    -14.155529  KCAL/ANGSTROM
    105         35  H    CARTESIAN Z     2.797606     -8.077793  KCAL/ANGSTROM
    106         36  O    CARTESIAN X     0.771780      4.647543  KCAL/ANGSTROM
    107         36  O    CARTESIAN Y    -2.788377     -0.744997  KCAL/ANGSTROM
    108         36  O    CARTESIAN Z     5.278228     -8.723938  KCAL/ANGSTROM
    109         37  H    CARTESIAN X     0.877220     -0.497082  KCAL/ANGSTROM
    110         37  H    CARTESIAN Y    -3.732683     -0.642259  KCAL/ANGSTROM
    111         37  H    CARTESIAN Z     5.214465      3.753896  KCAL/ANGSTROM
    112         38  H    CARTESIAN X    -0.057216     -4.187580  KCAL/ANGSTROM
    113         38  H    CARTESIAN Y    -2.642957     -0.283819  KCAL/ANGSTROM
    114         38  H    CARTESIAN Z     5.759763      6.541269  KCAL/ANGSTROM
    115         39  O    CARTESIAN X    -2.250678      5.536326  KCAL/ANGSTROM
    116         39  O    CARTESIAN Y     3.310266      2.287809  KCAL/ANGSTROM
    117         39  O    CARTESIAN Z    -2.397064    -18.232386  KCAL/ANGSTROM
    118         40  H    CARTESIAN X    -2.620655      4.043927  KCAL/ANGSTROM
    119         40  H    CARTESIAN Y     3.370456     -7.904035  KCAL/ANGSTROM
    120         40  H    CARTESIAN Z    -3.279364     -7.884799  KCAL/ANGSTROM
    121         41  H    CARTESIAN X    -2.848804     -5.273186  KCAL/ANGSTROM
    122         41  H    CARTESIAN Y     3.592977      1.299790  KCAL/ANGSTROM
    123         41  H    CARTESIAN Z    -1.676007     25.634489  KCAL/ANGSTROM
    124         42  O    CARTESIAN X    -0.380772     15.801399  KCAL/ANGSTROM
    125         42  O    CARTESIAN Y     0.626278    -19.491787  KCAL/ANGSTROM
    126         42  O    CARTESIAN Z     3.941858      3.761633  KCAL/ANGSTROM
    127         43  H    CARTESIAN X    -0.379878     -1.725432  KCAL/ANGSTROM
    128         43  H    CARTESIAN Y     1.587838     20.217820  KCAL/ANGSTROM
    129         43  H    CARTESIAN Z     4.129336      2.006324  KCAL/ANGSTROM
    130         44  H    CARTESIAN X     0.501796     -6.054434  KCAL/ANGSTROM
    131         44  H    CARTESIAN Y     0.284391      5.207842  KCAL/ANGSTROM
    132         44  H    CARTESIAN Z     3.967145     -2.766091  KCAL/ANGSTROM
    133         45  O    CARTESIAN X    -1.950124     28.459959  KCAL/ANGSTROM
    134         45  O    CARTESIAN Y    -3.741112      9.269245  KCAL/ANGSTROM
    135         45  O    CARTESIAN Z     3.098295     19.662964  KCAL/ANGSTROM
    136         46  H    CARTESIAN X    -2.832343    -24.394728  KCAL/ANGSTROM
    137         46  H    CARTESIAN Y    -3.691319      1.009822  KCAL/ANGSTROM
    138         46  H    CARTESIAN Z     2.575044    -11.747950  KCAL/ANGSTROM
    139         47  H    CARTESIAN X    -1.817098      2.020014  KCAL/ANGSTROM
    140         47  H    CARTESIAN Y    -2.852956    -17.242086  KCAL/ANGSTROM
    141         47  H    CARTESIAN Z     3.351502     -1.637625  KCAL/ANGSTROM
    142         48  O    CARTESIAN X    -1.582414     10.654405  KCAL/ANGSTROM
    143         48  O    CARTESIAN Y    -3.009108    -19.158519  KCAL/ANGSTROM
    144         48  O    CARTESIAN Z    -3.021090     14.603916  KCAL/ANGSTROM
    145         49  H    CARTESIAN X    -1.650136     -4.819153  KCAL/ANGSTROM
    146         49  H    CARTESIAN Y    -3.056653     13.051838  KCAL/ANGSTROM
    147         49  H    CARTESIAN Z    -3.982213     -0.555744  KCAL/ANGSTROM
    148         50  H    CARTESIAN X    -1.860534     -4.075720  KCAL/ANGSTROM
    149         50  H    CARTESIAN Y    -2.078702      4.035613  KCAL/ANGSTROM
    150         50  H    CARTESIAN Z    -2.921999    -13.156110  KCAL/ANGSTROM
    151         51  O    CARTESIAN X    -2.458727    -15.046831  KCAL/ANGSTROM
    152         51  O    CARTESIAN Y    -1.062632     -3.490362  KCAL/ANGSTROM
    153         51  O    CARTESIAN Z     3.285750    -14.851992  KCAL/ANGSTROM
    154         52  H    CARTESIAN X    -2.493815      7.253703  KCAL/ANGSTROM
    155         52  H    CARTESIAN Y    -0.704729      7.102350  KCAL/ANGSTROM
    156         52  H    CARTESIAN Z     2.387388     -1.630194  KCAL/ANGSTROM
    157         53  H    CARTESIAN X    -1.870968     -0.367839  KCAL/ANGSTROM
    158         53  H    CARTESIAN Y    -0.509788      2.553661  KCAL/ANGSTROM
    159         53  H    CARTESIAN Z     3.816147      8.010941  KCAL/ANGSTROM
    160         54  O    CARTESIAN X    -0.616710     -2.484210  KCAL/ANGSTROM
    161         54  O    CARTESIAN Y     4.339083      7.105074  KCAL/ANGSTROM
    162         54  O    CARTESIAN Z     0.913971     18.384150  KCAL/ANGSTROM
    163         55  H    CARTESIAN X    -1.553128     -5.223670  KCAL/ANGSTROM
    164         55  H    CARTESIAN Y     4.184131     -4.594829  KCAL/ANGSTROM
    165         55  H    CARTESIAN Z     0.752447     -2.477366  KCAL/ANGSTROM
    166         56  H    CARTESIAN X    -0.149260      7.130401  KCAL/ANGSTROM
    167         56  H    CARTESIAN Y     4.248603     -3.514265  KCAL/ANGSTROM
    168         56  H    CARTESIAN Z     0.059662    -16.015400  KCAL/ANGSTROM
    169         57  H    CARTESIAN X    -4.370689      4.449175  KCAL/ANGSTROM
    170         57  H    CARTESIAN Y     1.271762     -0.121175  KCAL/ANGSTROM
    171         57  H    CARTESIAN Z     0.374456      1.196230  KCAL/ANGSTROM
    172         58  H    CARTESIAN X    -0.221898    -15.014240  KCAL/ANGSTROM
    173         58  H    CARTESIAN Y     0.826466     -4.553913  KCAL/ANGSTROM
    174         58  H    CARTESIAN Z     0.034834     12.119338  KCAL/ANGSTROM




   ATOM   CHEMICAL          X               Y               Z
  NUMBER   SYMBOL      (ANGSTROMS)     (ANGSTROMS)     (ANGSTROMS)
 
     1       C         -3.51278500  *   0.60647200  *   0.47187700  *
     2       O         -3.65824000  *  -0.55544800  *   0.97184600  *
     3       N         -2.30725300  *   0.97330200  *   0.00569800  *
     4       H         -2.11768600  *   1.99974100  *  -0.28419500  *
     5       C         -1.06867000  *   0.17622400  *   0.25452300  *
     6       H         -0.95462200  *  -0.02690500  *   1.29892300  *
     7       C         -0.98434200  *  -1.18462800  *  -0.43958100  *
     8       H         -1.83472400  *  -1.77358500  *   0.01533900  *
     9       H         -1.18465700  *  -0.97369400  *  -1.58071100  *
    10       C          0.24396900  *  -2.00298800  *  -0.36605100  *
    11       C          1.13412800  *  -1.95202200  *  -1.45469600  *
    12       H          0.76656400  *  -1.29374800  *  -2.26307700  *
    13       C          2.30567900  *  -2.60713600  *  -1.54495100  *
    14       H          3.00749200  *  -2.45729000  *  -2.38731500  *
    15       C          2.68149900  *  -3.42406200  *  -0.46638100  *
    16       H          3.71932800  *  -3.79402100  *  -0.50713700  *
    17       C          0.54092500  *  -2.91394900  *   0.73209100  *
    18       H         -0.05722400  *  -2.98429100  *   1.63744600  *
    19       C          1.75237400  *  -3.62328500  *   0.61211500  *
    20       H          1.84666600  *  -4.46436400  *   1.29111600  *
    21       O          4.46521300  *  -6.67327400  *  -1.39572000  *
    22       H          4.97730400  *  -6.36070200  *  -0.71046400  *
    23       H          4.88760600  *  -7.58577000  *  -1.70108800  *
    24       O         -4.08635500  *  -3.63032700  *   1.46105300  *
    25       H         -3.75193200  *  -3.63880500  *   0.60910200  *
    26       H         -4.70742900  *  -2.83251500  *   1.42204500  *
    27       O         -0.56340700  *  -6.00222300  *   0.00141300  *
    28       H         -1.31836000  *  -6.63818700  *   0.28280000  *
    29       H         -0.78810400  *  -5.36065300  *   0.73458200  *
    30       O         -2.18692700  *   0.64275100  *  -3.88356400  *
    31       H         -2.10157200  *   1.44952800  *  -3.35456300  *
    32       H         -2.36436800  *   1.02012700  *  -4.74595600  *
    33       O         -5.89811900  *  -1.75597400  *   2.23914800  *
    34       H         -6.60552100  *  -2.15214900  *   2.86703700  *
    35       H         -5.31625300  *  -1.32356800  *   2.79760600  *
    36       O          0.77178000  *  -2.78837700  *   5.27822800  *
    37       H          0.87722000  *  -3.73268300  *   5.21446500  *
    38       H         -0.05721600  *  -2.64295700  *   5.75976300  *
    39       O         -2.25067800  *   3.31026600  *  -2.39706400  *
    40       H         -2.62065500  *   3.37045600  *  -3.27936400  *
    41       H         -2.84880400  *   3.59297700  *  -1.67600700  *
    42       O         -0.38077200  *   0.62627800  *   3.94185800  *
    43       H         -0.37987800  *   1.58783800  *   4.12933600  *
    44       H          0.50179600  *   0.28439100  *   3.96714500  *
    45       O         -1.95012400  *  -3.74111200  *   3.09829500  *
    46       H         -2.83234300  *  -3.69131900  *   2.57504400  *
    47       H         -1.81709800  *  -2.85295600  *   3.35150200  *
    48       O         -1.58241400  *  -3.00910800  *  -3.02109000  *
    49       H         -1.65013600  *  -3.05665300  *  -3.98221300  *
    50       H         -1.86053400  *  -2.07870200  *  -2.92199900  *
    51       O         -2.45872700  *  -1.06263200  *   3.28575000  *
    52       H         -2.49381500  *  -0.70472900  *   2.38738800  *
    53       H         -1.87096800  *  -0.50978800  *   3.81614700  *
    54       O         -0.61671000  *   4.33908300  *   0.91397100  *
    55       H         -1.55312800  *   4.18413100  *   0.75244700  *
    56       H         -0.14926000  *   4.24860300  *   0.05966200  *
    57       H         -4.37068900  *   1.27176200  *   0.37445600  *
    58       H         -0.22189800  *   0.82646600  *   0.03483400  *

                             CARTESIAN COORDINATES

   1    C       -3.512785000     0.606472000     0.471877000
   2    O       -3.658240000    -0.555448000     0.971846000
   3    N       -2.307253000     0.973302000     0.005698000
   4    H       -2.117686000     1.999741000    -0.284195000
   5    C       -1.068670000     0.176224000     0.254523000
   6    H       -0.954622000    -0.026905000     1.298923000
   7    C       -0.984342000    -1.184628000    -0.439581000
   8    H       -1.834724000    -1.773585000     0.015339000
   9    H       -1.184657000    -0.973694000    -1.580711000
  10    C        0.243969000    -2.002988000    -0.366051000
  11    C        1.134128000    -1.952022000    -1.454696000
  12    H        0.766564000    -1.293748000    -2.263077000
  13    C        2.305679000    -2.607136000    -1.544951000
  14    H        3.007492000    -2.457290000    -2.387315000
  15    C        2.681499000    -3.424062000    -0.466381000
  16    H        3.719328000    -3.794021000    -0.507137000
  17    C        0.540925000    -2.913949000     0.732091000
  18    H       -0.057224000    -2.984291000     1.637446000
  19    C        1.752374000    -3.623285000     0.612115000
  20    H        1.846666000    -4.464364000     1.291116000
  21    O        4.465213000    -6.673274000    -1.395720000
  22    H        4.977304000    -6.360702000    -0.710464000
  23    H        4.887606000    -7.585770000    -1.701088000
  24    O       -4.086355000    -3.630327000     1.461053000
  25    H       -3.751932000    -3.638805000     0.609102000
  26    H       -4.707429000    -2.832515000     1.422045000
  27    O       -0.563407000    -6.002223000     0.001413000
  28    H       -1.318360000    -6.638187000     0.282800000
  29    H       -0.788104000    -5.360653000     0.734582000
  30    O       -2.186927000     0.642751000    -3.883564000
  31    H       -2.101572000     1.449528000    -3.354563000
  32    H       -2.364368000     1.020127000    -4.745956000
  33    O       -5.898119000    -1.755974000     2.239148000
  34    H       -6.605521000    -2.152149000     2.867037000
  35    H       -5.316253000    -1.323568000     2.797606000
  36    O        0.771780000    -2.788377000     5.278228000
  37    H        0.877220000    -3.732683000     5.214465000
  38    H       -0.057216000    -2.642957000     5.759763000
  39    O       -2.250678000     3.310266000    -2.397064000
  40    H       -2.620655000     3.370456000    -3.279364000
  41    H       -2.848804000     3.592977000    -1.676007000
  42    O       -0.380772000     0.626278000     3.941858000
  43    H       -0.379878000     1.587838000     4.129336000
  44    H        0.501796000     0.284391000     3.967145000
  45    O       -1.950124000    -3.741112000     3.098295000
  46    H       -2.832343000    -3.691319000     2.575044000
  47    H       -1.817098000    -2.852956000     3.351502000
  48    O       -1.582414000    -3.009108000    -3.021090000
  49    H       -1.650136000    -3.056653000    -3.982213000
  50    H       -1.860534000    -2.078702000    -2.921999000
  51    O       -2.458727000    -1.062632000     3.285750000
  52    H       -2.493815000    -0.704729000     2.387388000
  53    H       -1.870968000    -0.509788000     3.816147000
  54    O       -0.616710000     4.339083000     0.913971000
  55    H       -1.553128000     4.184131000     0.752447000
  56    H       -0.149260000     4.248603000     0.059662000
  57    H       -4.370689000     1.271762000     0.374456000
  58    H       -0.221898000     0.826466000     0.034834000


           Empirical Formula: C9 H35 N O13  =    58 atoms



      MOLECULAR POINT GROUP   :   C1  


                EIGENVECTORS  


   Root No.       1         2         3         4         5         6         7         8

                 1 A       2 A       3 A       4 A       5 A       6 A       7 A       8 A   

               -36.454   -30.217   -29.938   -29.885   -29.454   -29.373   -29.129   -29.026
  
  S   C    1    0.3184   -0.0278    0.0012   -0.0109    0.0006    0.0274   -0.0358   -0.0032
  Px  C    1    0.1996   -0.0083    0.0004   -0.0027    0.0004   -0.0096   -0.0003    0.0004
  Py  C    1    0.0545   -0.0117    0.0038    0.0039    0.0010   -0.0323    0.0232    0.0058
  Pz  C    1   -0.0662    0.0062   -0.0023   -0.0014   -0.0006    0.0188   -0.0095   -0.0032
  S   O    2    0.0552    0.0016   -0.0053   -0.0113   -0.0015    0.0843   -0.0577   -0.0115
  Px  O    2    0.0425    0.0019   -0.0012   -0.0015   -0.0002    0.0044   -0.0054   -0.0015
  Py  O    2    0.0652   -0.0070   -0.0007   -0.0055   -0.0000    0.0176   -0.0234   -0.0038
  Pz  O    2   -0.0345    0.0028   -0.0002    0.0023   -0.0001   -0.0001    0.0092    0.0010
  S   N    3    0.8176   -0.0380    0.0041   -0.0075    0.0017   -0.0250   -0.0017    0.0024
  Px  N    3   -0.0431    0.0268   -0.0045    0.0034   -0.0011   -0.0009    0.0089   -0.0023
  Py  N    3   -0.0120   -0.0165    0.0046    0.0053    0.0009   -0.0127    0.0184    0.0043
  Pz  N    3    0.0569   -0.0037   -0.0017   -0.0044   -0.0000    0.0057   -0.0080   -0.0023
  S   H    4    0.2272   -0.0130    0.0041    0.0064    0.0007   -0.0125    0.0214    0.0049
  S   C    5    0.2404    0.0887   -0.0239    0.0009   -0.0038    0.0111   -0.0062   -0.0075
  Px  C    5   -0.1367    0.0241   -0.0074    0.0040   -0.0009    0.0017    0.0041   -0.0005
  Py  C    5    0.0836   -0.0438    0.0108   -0.0017    0.0017   -0.0094    0.0050    0.0010
  Pz  C    5   -0.0179   -0.0131   -0.0000   -0.0010    0.0003    0.0063   -0.0018   -0.0006
  S   H    6    0.0875    0.0439   -0.0140    0.0005   -0.0021    0.0149   -0.0050   -0.0045
  S   C    7    0.0667    0.1977   -0.0481    0.0074   -0.0071    0.0124   -0.0070   -0.0056
  Px  C    7   -0.0208    0.0625   -0.0319    0.0078   -0.0020   -0.0065    0.0017    0.0003
  Py  C    7    0.0424   -0.0288    0.0141   -0.0034    0.0007    0.0017   -0.0015   -0.0016
  Pz  C    7    0.0153   -0.0028   -0.0119    0.0020   -0.0004    0.0062   -0.0017   -0.0010
  S   H    8    0.0338    0.0745   -0.0164    0.0016   -0.0028    0.0144   -0.0042   -0.0025
  S   H    9    0.0301    0.0929    0.0017   -0.0011   -0.0027    0.0025   -0.0028   -0.0024
  S   C   10    0.0120    0.3711   -0.1660    0.0362   -0.0110   -0.0160   -0.0001   -0.0001
  Px  C   10   -0.0074    0.0656   -0.0491    0.0121   -0.0009   -0.0144    0.0028    0.0024
  Py  C   10    0.0080   -0.0266    0.0252   -0.0063    0.0002    0.0059   -0.0017   -0.0018
  Pz  C   10    0.0010   -0.0271    0.0049   -0.0010    0.0006    0.0059   -0.0005   -0.0003
  S   C   11    0.0039    0.3711   -0.1799    0.0407   -0.0093   -0.0336    0.0033    0.0030
  Px  C   11   -0.0029    0.0150   -0.0236    0.0062    0.0008   -0.0079    0.0017    0.0017
  Py  C   11    0.0020   -0.0555    0.0361   -0.0085    0.0007    0.0076   -0.0013   -0.0013
  Pz  C   11    0.0011    0.0894   -0.0480    0.0109   -0.0024   -0.0058    0.0005    0.0005
  S   H   12    0.0038    0.1272   -0.0492    0.0108   -0.0034   -0.0099    0.0006    0.0004
  S   C   13    0.0002    0.3214   -0.1785    0.0414   -0.0047   -0.0379    0.0051    0.0049
  Px  C   13   -0.0004   -0.0841    0.0406   -0.0091    0.0032    0.0073   -0.0007   -0.0006
  Py  C   13    0.0004    0.0065    0.0003   -0.0002   -0.0015    0.0002   -0.0002   -0.0003
  Pz  C   13    0.0001    0.0881   -0.0509    0.0118   -0.0010   -0.0093    0.0013    0.0013
  S   H   14    0.0001    0.0917   -0.0514    0.0120   -0.0009   -0.0117    0.0016    0.0015
  S   C   15   -0.0001    0.2739   -0.1597    0.0372    0.0003   -0.0324    0.0047    0.0046
  Px  C   15   -0.0001   -0.0934    0.0517   -0.0119    0.0041    0.0089   -0.0012   -0.0012
  Py  C   15    0.0001    0.0618   -0.0340    0.0079   -0.0026   -0.0070    0.0009    0.0008
  Pz  C   15    0.0000   -0.0142    0.0072   -0.0017    0.0001    0.0030   -0.0003   -0.0003
  S   H   16   -0.0001    0.0769   -0.0461    0.0108    0.0058   -0.0098    0.0015    0.0015
  S   C   17    0.0031    0.2799   -0.1493    0.0338   -0.0074   -0.0120    0.0020    0.0019
  Px  C   17   -0.0019    0.0555   -0.0364    0.0088   -0.0005   -0.0109    0.0016    0.0015
  Py  C   17    0.0024    0.0258   -0.0079    0.0014   -0.0013    0.0005   -0.0007   -0.0006
  Pz  C   17   -0.0006   -0.0913    0.0452   -0.0102    0.0023    0.0099   -0.0007   -0.0007
  S   H   18    0.0024    0.0821   -0.0431    0.0096   -0.0026    0.0066    0.0001    0.0001
  S   C   19    0.0001    0.2641   -0.1527    0.0354   -0.0037   -0.0241    0.0039    0.0038
  Px  C   19   -0.0003   -0.0303    0.0147   -0.0032    0.0024   -0.0013    0.0001    0.0001
  Py  C   19    0.0003    0.0686   -0.0371    0.0085   -0.0021   -0.0056    0.0007    0.0007
  Pz  C   19    0.0000   -0.0716    0.0402   -0.0093    0.0007    0.0091   -0.0011   -0.0011
  S   H   20    0.0000    0.0770   -0.0456    0.0106   -0.0005   -0.0063    0.0012    0.0012
  S   O   21   -0.0000    0.0125   -0.0120    0.0032    0.8614    0.0155   -0.0006   -0.0005
  Px  O   21   -0.0000    0.0028   -0.0027    0.0007    0.1910    0.0034   -0.0001   -0.0001
  Py  O   21   -0.0000   -0.0001    0.0004   -0.0001   -0.0585   -0.0012    0.0001    0.0000
  Pz  O   21   -0.0000    0.0023   -0.0020    0.0005    0.1246    0.0022   -0.0001   -0.0001
  S   H   22   -0.0000    0.0063   -0.0057    0.0015    0.3622    0.0064   -0.0002   -0.0002
  S   H   23   -0.0000    0.0037   -0.0036    0.0009    0.2654    0.0048   -0.0002   -0.0001
  S   O   24    0.0005    0.0249   -0.0109    0.0008   -0.0102    0.5682    0.0312    0.0097
  Px  O   24    0.0003    0.0013   -0.0006    0.0001   -0.0001   -0.0018   -0.0009   -0.0007
  Py  O   24   -0.0000    0.0039   -0.0017    0.0001   -0.0016    0.0888    0.0050    0.0017
  Pz  O   24   -0.0002   -0.0052    0.0019   -0.0001    0.0021   -0.1175   -0.0071   -0.0024
  S   H   25    0.0006    0.0120   -0.0048    0.0003   -0.0043    0.2371    0.0129    0.0039
  S   H   26   -0.0001    0.0090   -0.0039    0.0003   -0.0038    0.2119    0.0118    0.0041
  S   O   27    0.0001    0.0328   -0.0213    0.0049   -0.0019    0.0276    0.0022    0.0010
  Px  O   27   -0.0000   -0.0056    0.0037   -0.0008    0.0004   -0.0059   -0.0004   -0.0002
  Py  O   27    0.0000    0.0038   -0.0021    0.0005   -0.0001    0.0009    0.0001    0.0000
  Pz  O   27    0.0000    0.0090   -0.0056    0.0013   -0.0005    0.0065    0.0005    0.0002
  S   H   28    0.0000    0.0113   -0.0073    0.0017   -0.0007    0.0102    0.0008    0.0004
  S   H   29    0.0001    0.0196   -0.0118    0.0027   -0.0009    0.0124    0.0009    0.0004
  S   O   30    0.0039    0.0366    0.2357    0.7461   -0.0004    0.0113   -0.2294   -0.2447
  Px  O   30    0.0001   -0.0002   -0.0051   -0.0173   -0.0000   -0.0003    0.0058    0.0062
  Py  O   30    0.0017    0.0079    0.0623    0.2084   -0.0001    0.0029   -0.0550   -0.0574
  Pz  O   30    0.0009   -0.0016   -0.0180   -0.0600    0.0000   -0.0011    0.0248    0.0274
  S   H   31    0.0049    0.0146    0.0924    0.2938   -0.0001    0.0037   -0.0682   -0.0695
  S   H   32    0.0014    0.0138    0.0914    0.2899   -0.0001    0.0044   -0.0876   -0.0932
  S   O   33   -0.0000    0.0085   -0.0049   -0.0001   -0.0072    0.4587    0.0321    0.0179
  Px  O   33   -0.0003    0.0011   -0.0005    0.0000   -0.0006    0.0326    0.0019    0.0008
  Py  O   33   -0.0002   -0.0001   -0.0000   -0.0000   -0.0001    0.0083    0.0006    0.0005
  Pz  O   33    0.0002    0.0019   -0.0011   -0.0001   -0.0017    0.1125    0.0079    0.0046
  S   H   34    0.0001    0.0026   -0.0015   -0.0000   -0.0023    0.1442    0.0101    0.0057
  S   H   35   -0.0001    0.0041   -0.0023   -0.0001   -0.0032    0.2000    0.0133    0.0074
  S   O   36    0.0001    0.0039   -0.0027    0.0005   -0.0010    0.0441   -0.0034   -0.0078
  Px  O   36   -0.0000   -0.0008    0.0005   -0.0001    0.0002   -0.0082    0.0006    0.0013
  Py  O   36   -0.0000   -0.0008    0.0006   -0.0001    0.0002   -0.0085    0.0006    0.0015
  Pz  O   36   -0.0000    0.0002   -0.0002    0.0000   -0.0001    0.0039   -0.0003   -0.0007
  S   H   37    0.0000    0.0018   -0.0012    0.0002   -0.0004    0.0176   -0.0013   -0.0030
  S   H   38    0.0001    0.0017   -0.0011    0.0002   -0.0004    0.0177   -0.0013   -0.0029
  S   O   39    0.0118    0.0055    0.0934    0.3143    0.0007   -0.0122    0.5041    0.6236
  Px  O   39   -0.0033   -0.0011   -0.0209   -0.0704   -0.0002    0.0029   -0.1156   -0.1429
  Py  O   39   -0.0013   -0.0003    0.0019    0.0074    0.0001   -0.0010    0.0434    0.0510
  Pz  O   39    0.0055   -0.0017   -0.0096   -0.0319    0.0000   -0.0003   -0.0142   -0.0270
  S   H   40    0.0035    0.0031    0.0400    0.1336    0.0002   -0.0040    0.1759    0.2210
  S   H   41    0.0126    0.0010    0.0319    0.1072    0.0003   -0.0051    0.1856    0.2190
  S   O   42    0.0023    0.0085   -0.0043   -0.0000   -0.0016    0.0542   -0.0097   -0.0116
  Px  O   42   -0.0002    0.0008   -0.0004    0.0001   -0.0002    0.0045   -0.0009   -0.0017
  Py  O   42   -0.0002    0.0000   -0.0000    0.0000   -0.0000    0.0014   -0.0002   -0.0010
  Pz  O   42   -0.0009   -0.0004    0.0001   -0.0000   -0.0000    0.0012   -0.0002   -0.0004
  S   H   43    0.0012    0.0029   -0.0015   -0.0000   -0.0006    0.0184   -0.0031   -0.0042
  S   H   44    0.0013    0.0036   -0.0018    0.0000   -0.0006    0.0200   -0.0035   -0.0043
  S   O   45    0.0013    0.0326   -0.0186    0.0024   -0.0076    0.3462   -0.0003   -0.0083
  Px  O   45   -0.0001   -0.0029    0.0016   -0.0001    0.0011   -0.0528   -0.0007    0.0007
  Py  O   45    0.0007    0.0094   -0.0052    0.0007   -0.0019    0.0851   -0.0007   -0.0024
  Pz  O   45   -0.0001   -0.0023    0.0012   -0.0002    0.0004   -0.0170   -0.0006    0.0000
  S   H   46    0.0008    0.0132   -0.0072    0.0009   -0.0032    0.1492    0.0016   -0.0023
  S   H   47    0.0015    0.0169   -0.0094    0.0012   -0.0034    0.1510   -0.0015   -0.0043
  S   O   48    0.0031    0.3803    0.7166   -0.2414    0.0061   -0.0043    0.0075    0.0066
  Px  O   48   -0.0003   -0.0284   -0.0565    0.0188   -0.0005    0.0001   -0.0005   -0.0004
  Py  O   48    0.0017    0.0805    0.1375   -0.0457    0.0009   -0.0007    0.0011    0.0009
  Pz  O   48    0.0000   -0.0709   -0.1440    0.0485   -0.0014    0.0011   -0.0016   -0.0014
  S   H   49    0.0012    0.1476    0.2795   -0.0939    0.0024   -0.0017    0.0029    0.0025
  S   H   50    0.0037    0.1574    0.2715   -0.0899    0.0019   -0.0013    0.0021    0.0017
  S   O   51    0.0163    0.0334   -0.0166   -0.0019   -0.0061    0.2239   -0.0365   -0.0224
  Px  O   51    0.0023    0.0051   -0.0025   -0.0002   -0.0009    0.0300   -0.0049   -0.0032
  Py  O   51    0.0052    0.0059   -0.0028   -0.0006   -0.0010    0.0319   -0.0080   -0.0045
  Pz  O   51   -0.0070   -0.0052    0.0023    0.0004    0.0007   -0.0225    0.0041    0.0021
  S   H   52    0.0228    0.0172   -0.0080   -0.0013   -0.0026    0.0915   -0.0163   -0.0090
  S   H   53    0.0069    0.0130   -0.0064   -0.0006   -0.0023    0.0839   -0.0137   -0.0087
  S   O   54    0.0081   -0.0013    0.0057    0.0204    0.0004   -0.0130    0.6591   -0.5551
  Px  O   54   -0.0027    0.0003   -0.0009   -0.0029   -0.0001    0.0016   -0.0753    0.0611
  Py  O   54   -0.0019    0.0001   -0.0004   -0.0014   -0.0000    0.0009   -0.0395    0.0326
  Pz  O   54   -0.0027    0.0003   -0.0014   -0.0052   -0.0001    0.0031   -0.1557    0.1297
  S   H   55    0.0082   -0.0007    0.0025    0.0088    0.0002   -0.0050    0.2401   -0.1970
  S   H   56    0.0047   -0.0004    0.0023    0.0082    0.0001   -0.0049    0.2467   -0.2057
  S   H   57    0.0833   -0.0114    0.0014   -0.0022    0.0004    0.0071   -0.0083    0.0005
  S   H   58    0.0816    0.0398   -0.0111    0.0021   -0.0016    0.0023    0.0016   -0.0040


   Root No.       9        10        11        12        13        14        15        16

                 9 A      10 A      11 A      12 A      13 A      14 A      15 A      16 A   

               -28.955   -28.885   -28.752   -28.700   -28.497   -28.395   -28.154   -27.592
  
  S   C    1    0.0535   -0.0561    0.1231    0.0555   -0.2834    0.1598   -0.1566   -0.0526
  Px  C    1   -0.0156    0.0156   -0.0308   -0.0118    0.0574   -0.0327    0.0224   -0.0386
  Py  C    1   -0.0586    0.0578   -0.1049   -0.0409    0.1991   -0.1106    0.0707   -0.1108
  Pz  C    1    0.0330   -0.0316    0.0553    0.0211   -0.0929    0.0493   -0.0265    0.0503
  S   O    2    0.1407   -0.1411    0.2685    0.1091   -0.5339    0.2978   -0.2188    0.1535
  Px  O    2    0.0174   -0.0145    0.0158    0.0054   -0.0194    0.0070    0.0043    0.0082
  Py  O    2    0.0479   -0.0477    0.0973    0.0415   -0.2025    0.1115   -0.0986    0.0258
  Pz  O    2   -0.0101    0.0117   -0.0277   -0.0130    0.0844   -0.0525    0.0531   -0.0192
  S   N    3   -0.0469    0.0428   -0.0640   -0.0210    0.0889   -0.0468    0.0060   -0.1192
  Px  N    3   -0.0049    0.0069   -0.0257   -0.0157    0.0872   -0.0500    0.0734    0.1262
  Py  N    3   -0.0224    0.0214   -0.0336   -0.0111    0.0519   -0.0280    0.0033   -0.0927
  Pz  N    3    0.0107   -0.0102    0.0179    0.0075   -0.0322    0.0173   -0.0122   -0.0008
  S   H    4   -0.0217    0.0206   -0.0332   -0.0118    0.0537   -0.0289    0.0104   -0.0547
  S   C    5    0.0160   -0.0120   -0.0052   -0.0158    0.0895   -0.0521    0.1222    0.3537
  Px  C    5    0.0051   -0.0045    0.0054   -0.0005    0.0021   -0.0007    0.0114    0.0561
  Py  C    5   -0.0164    0.0152   -0.0201   -0.0037    0.0217   -0.0105   -0.0144   -0.1160
  Pz  C    5    0.0114   -0.0095    0.0123    0.0058   -0.0123    0.0064   -0.0032   -0.0311
  S   H    6    0.0247   -0.0199    0.0144   -0.0017    0.0339   -0.0195    0.0641    0.1640
  S   C    7    0.0202   -0.0187    0.0112   -0.0150    0.0449   -0.0274    0.1106    0.4705
  Px  C    7   -0.0030    0.0021    0.0011   -0.0045    0.0059   -0.0034    0.0077    0.0488
  Py  C    7    0.0023   -0.0012   -0.0017   -0.0015    0.0175   -0.0101    0.0187    0.0338
  Pz  C    7    0.0078   -0.0062    0.0031    0.0014    0.0047   -0.0041    0.0142    0.0412
  S   H    8    0.0137   -0.0126    0.0062   -0.0039    0.0090   -0.0055    0.0438    0.1881
  S   H    9    0.0049   -0.0050    0.0031   -0.0073    0.0182   -0.0104    0.0416    0.1817
  S   C   10   -0.0030   -0.0011    0.0114   -0.0189    0.0126   -0.0072    0.0457    0.2643
  Px  C   10   -0.0128    0.0099    0.0005   -0.0034   -0.0147    0.0107   -0.0345   -0.1450
  Py  C   10    0.0059   -0.0050    0.0030   -0.0045    0.0136   -0.0075    0.0289    0.1108
  Pz  C   10    0.0057   -0.0035   -0.0032    0.0071    0.0002   -0.0033   -0.0017   -0.0037
  S   C   11   -0.0227    0.0139    0.0136   -0.0270   -0.0093    0.0119   -0.0073   -0.0021
  Px  C   11   -0.0084    0.0065    0.0005   -0.0019   -0.0125    0.0094   -0.0299   -0.1518
  Py  C   11    0.0064   -0.0047   -0.0009    0.0020    0.0087   -0.0063    0.0179    0.0798
  Pz  C   11   -0.0026    0.0014    0.0020   -0.0035   -0.0002    0.0002    0.0029    0.0285
  S   H   12   -0.0062    0.0034    0.0052   -0.0105    0.0012    0.0016    0.0073    0.0436
  S   C   13   -0.0300    0.0205    0.0113   -0.0232   -0.0264    0.0236   -0.0516   -0.2429
  Px  C   13    0.0046   -0.0028   -0.0027    0.0054    0.0016   -0.0020   -0.0001   -0.0149
  Py  C   13    0.0005   -0.0007    0.0011   -0.0022    0.0027   -0.0015    0.0072    0.0392
  Pz  C   13   -0.0069    0.0048    0.0018   -0.0036   -0.0070    0.0054   -0.0140   -0.0620
  S   H   14   -0.0096    0.0066    0.0037   -0.0077   -0.0087    0.0080   -0.0176   -0.0879
  S   C   15   -0.0257    0.0183    0.0059   -0.0124   -0.0272    0.0218   -0.0577   -0.2752
  Px  C   15    0.0062   -0.0043   -0.0010    0.0021    0.0060   -0.0043    0.0115    0.0420
  Py  C   15   -0.0054    0.0036    0.0027   -0.0056   -0.0044    0.0040   -0.0080   -0.0355
  Pz  C   15    0.0029   -0.0017   -0.0027    0.0053    0.0015   -0.0025    0.0023    0.0178
  S   H   16   -0.0082    0.0059    0.0019   -0.0039   -0.0091    0.0074   -0.0200   -0.1013
  S   C   17   -0.0027    0.0025   -0.0048    0.0066   -0.0077   -0.0020   -0.0143    0.0103
  Px  C   17   -0.0092    0.0069    0.0015   -0.0024   -0.0090    0.0081   -0.0198   -0.0960
  Py  C   17    0.0019   -0.0022    0.0057   -0.0103    0.0056   -0.0031    0.0161    0.0767
  Pz  C   17    0.0071   -0.0036   -0.0051    0.0067    0.0018   -0.0049   -0.0037   -0.0163
  S   H   18    0.0093   -0.0046   -0.0082    0.0075   -0.0001   -0.0104   -0.0077    0.0237
  S   C   19   -0.0163    0.0128   -0.0032    0.0053   -0.0215    0.0128   -0.0473   -0.1877
  Px  C   19   -0.0027    0.0017    0.0034   -0.0064   -0.0015    0.0033   -0.0037   -0.0405
  Py  C   19   -0.0035    0.0022    0.0025   -0.0056   -0.0030    0.0018   -0.0050   -0.0114
  Pz  C   19    0.0075   -0.0047   -0.0036    0.0066    0.0060   -0.0060    0.0109    0.0553
  S   H   20   -0.0039    0.0039   -0.0043    0.0085   -0.0071    0.0036   -0.0169   -0.0674
  S   O   21    0.0021   -0.0014   -0.0002    0.0004    0.0013   -0.0009    0.0021    0.0075
  Px  O   21    0.0005   -0.0003   -0.0000    0.0001    0.0003   -0.0002    0.0005    0.0017
  Py  O   21   -0.0002    0.0002    0.0000   -0.0001   -0.0002    0.0002   -0.0004   -0.0019
  Pz  O   21    0.0002   -0.0002   -0.0000    0.0000    0.0001   -0.0001    0.0001    0.0002
  S   H   22    0.0008   -0.0005   -0.0001    0.0001    0.0004   -0.0003    0.0006    0.0015
  S   H   23    0.0007   -0.0004   -0.0001    0.0001    0.0004   -0.0003    0.0007    0.0027
  S   O   24   -0.0963    0.0185   -0.3775   -0.1862   -0.0511    0.4091    0.2185   -0.0402
  Px  O   24    0.0182   -0.0111   -0.0112   -0.0036    0.0001   -0.0187   -0.0195    0.0032
  Py  O   24   -0.0213    0.0074   -0.0451   -0.0235   -0.0058    0.0566    0.0330   -0.0054
  Pz  O   24    0.0301   -0.0092    0.0830    0.0405    0.0126   -0.1129   -0.0696    0.0094
  S   H   25   -0.0384    0.0064   -0.1596   -0.0769   -0.0216    0.1716    0.0926   -0.0134
  S   H   26   -0.0519    0.0185   -0.1017   -0.0521   -0.0142    0.1279    0.0716   -0.0123
  S   O   27    0.0251   -0.0222   -0.3273    0.7941    0.0140    0.0122    0.0232    0.0052
  Px  O   27   -0.0050    0.0044    0.0640   -0.1545   -0.0028   -0.0024   -0.0047   -0.0018
  Py  O   27    0.0006   -0.0004   -0.0049    0.0103   -0.0000   -0.0001   -0.0005   -0.0007
  Pz  O   27    0.0056   -0.0049   -0.0701    0.1685    0.0029    0.0023    0.0043    0.0007
  S   H   28    0.0088   -0.0078   -0.1145    0.2768    0.0049    0.0044    0.0081    0.0021
  S   H   29    0.0103   -0.0088   -0.1241    0.2961    0.0048    0.0038    0.0067    0.0011
  S   O   30   -0.0189    0.0095   -0.0064   -0.0009    0.0013   -0.0002   -0.0025   -0.0075
  Px  O   30    0.0005   -0.0002    0.0002   -0.0000    0.0001   -0.0001    0.0003    0.0010
  Py  O   30   -0.0044    0.0022   -0.0014   -0.0001    0.0001    0.0000   -0.0007   -0.0025
  Pz  O   30    0.0021   -0.0011    0.0007   -0.0000    0.0002   -0.0002    0.0008    0.0031
  S   H   31   -0.0052    0.0026   -0.0017   -0.0002    0.0004   -0.0001   -0.0004   -0.0009
  S   H   32   -0.0072    0.0036   -0.0024   -0.0003    0.0003    0.0000   -0.0012   -0.0036
  S   O   33   -0.4069    0.2597    0.4439    0.1911    0.0749   -0.2108   -0.0908    0.0088
  Px  O   33   -0.0159    0.0088    0.0071    0.0022    0.0009    0.0029    0.0037   -0.0009
  Py  O   33   -0.0143    0.0098    0.0271    0.0121    0.0036   -0.0174   -0.0082    0.0011
  Pz  O   33   -0.1065    0.0687    0.1268    0.0550    0.0207   -0.0650   -0.0290    0.0031
  S   H   34   -0.1292    0.0826    0.1422    0.0613    0.0239   -0.0683   -0.0300    0.0030
  S   H   35   -0.1687    0.1067    0.1871    0.0800    0.0287   -0.0859   -0.0356    0.0033
  S   O   36    0.4966    0.6969    0.0233    0.0106   -0.0228    0.0344    0.0256    0.0009
  Px  O   36   -0.0806   -0.1102   -0.0036   -0.0015    0.0032   -0.0044   -0.0031   -0.0001
  Py  O   36   -0.0985   -0.1395   -0.0041   -0.0020    0.0056   -0.0062   -0.0054   -0.0002
  Pz  O   36    0.0459    0.0648    0.0023    0.0010   -0.0023    0.0033    0.0028    0.0000
  S   H   37    0.1942    0.2720    0.0086    0.0040   -0.0092    0.0126    0.0094    0.0004
  S   H   38    0.1811    0.2496    0.0084    0.0036   -0.0072    0.0110    0.0079    0.0001
  S   O   39    0.0585   -0.0340    0.0315    0.0089   -0.0271    0.0127   -0.0015    0.0164
  Px  O   39   -0.0133    0.0077   -0.0070   -0.0020    0.0060   -0.0028    0.0004   -0.0031
  Py  O   39    0.0051   -0.0031    0.0030    0.0009   -0.0029    0.0014   -0.0003    0.0019
  Pz  O   39   -0.0033    0.0023   -0.0028   -0.0009    0.0037   -0.0019    0.0005   -0.0039
  S   H   40    0.0210   -0.0123    0.0116    0.0033   -0.0104    0.0049   -0.0007    0.0067
  S   H   41    0.0199   -0.0112    0.0098    0.0027   -0.0074    0.0033   -0.0003    0.0023
  S   O   42    0.1870   -0.1369    0.2146    0.0679    0.5939    0.4430   -0.3056    0.0149
  Px  O   42    0.0271   -0.0184    0.0358    0.0118    0.1254    0.1002   -0.0823    0.0103
  Py  O   42    0.0136   -0.0103    0.0204    0.0068    0.0762    0.0624   -0.0528    0.0066
  Pz  O   42    0.0065   -0.0044    0.0084    0.0028    0.0278    0.0224   -0.0183   -0.0008
  S   H   43    0.0651   -0.0478    0.0757    0.0240    0.2131    0.1600   -0.1121    0.0067
  S   H   44    0.0696   -0.0491    0.0789    0.0249    0.2204    0.1644   -0.1144    0.0074
  S   O   45    0.2908   -0.1840   -0.2439   -0.1114    0.0063   -0.4322   -0.4839    0.0411
  Px  O   45   -0.0311    0.0226    0.0379    0.0179    0.0004    0.0449    0.0571   -0.0047
  Py  O   45    0.0771   -0.0473   -0.0525   -0.0264    0.0025   -0.1079   -0.1105    0.0083
  Pz  O   45   -0.0045    0.0056    0.0144    0.0039    0.0007    0.0065    0.0130   -0.0025
  S   H   46    0.0916   -0.0615   -0.1017   -0.0452   -0.0006   -0.1214   -0.1470    0.0123
  S   H   47    0.1370   -0.0834   -0.0887   -0.0427    0.0047   -0.1841   -0.1819    0.0116
  S   O   48   -0.0028    0.0036   -0.0023    0.0062   -0.0092    0.0040   -0.0204   -0.0714
  Px  O   48    0.0001   -0.0002    0.0003   -0.0005    0.0007   -0.0003    0.0014    0.0051
  Py  O   48   -0.0003    0.0004   -0.0001    0.0005   -0.0007    0.0002   -0.0009    0.0011
  Pz  O   48    0.0008   -0.0010    0.0006   -0.0016    0.0025   -0.0011    0.0062    0.0246
  S   H   49   -0.0012    0.0015   -0.0009    0.0025   -0.0038    0.0017   -0.0085   -0.0308
  S   H   50   -0.0006    0.0008   -0.0005    0.0013   -0.0017    0.0006   -0.0027   -0.0035
  S   O   51    0.4007   -0.3215    0.3059    0.0834    0.0434   -0.1660    0.4974   -0.2122
  Px  O   51    0.0594   -0.0456    0.0371    0.0094    0.0111   -0.0240    0.0603   -0.0273
  Py  O   51    0.0724   -0.0606    0.0760    0.0228    0.0095   -0.0129    0.1218   -0.0423
  Pz  O   51   -0.0327    0.0282   -0.0285   -0.0080    0.0087    0.0120   -0.0423    0.0037
  S   H   52    0.1527   -0.1244    0.1240    0.0348   -0.0039   -0.0502    0.1773   -0.0528
  S   H   53    0.1552   -0.1221    0.1186    0.0325    0.0338   -0.0505    0.1769   -0.0779
  S   O   54    0.0202   -0.0190    0.0240    0.0087   -0.0322    0.0126   -0.0063    0.0050
  Px  O   54   -0.0021    0.0019   -0.0023   -0.0008    0.0029   -0.0011    0.0006    0.0005
  Py  O   54   -0.0011    0.0010   -0.0012   -0.0004    0.0012   -0.0005    0.0002   -0.0002
  Pz  O   54   -0.0047    0.0044   -0.0055   -0.0020    0.0073   -0.0027    0.0013   -0.0012
  S   H   55    0.0070   -0.0064    0.0079    0.0028   -0.0100    0.0038   -0.0019    0.0004
  S   H   56    0.0075   -0.0070    0.0087    0.0031   -0.0114    0.0043   -0.0020    0.0023
  S   H   57    0.0126   -0.0141    0.0355    0.0169   -0.0873    0.0497   -0.0549   -0.0374
  S   H   58    0.0036   -0.0021   -0.0064   -0.0087    0.0468   -0.0261    0.0543    0.1504


   Root No.      17        18        19        20        21        22        23        24

                17 A      18 A      19 A      20 A      21 A      22 A      23 A      24 A   

               -25.725   -24.932   -22.535   -20.895   -20.628   -19.650   -18.819   -18.415
  
  S   C    1    0.0089   -0.1944    0.3150    0.2250    0.2435   -0.1594    0.0465    0.0596
  Px  C    1    0.0037   -0.0179   -0.0169   -0.0353   -0.0677    0.1180   -0.2056   -0.3502
  Py  C    1    0.0093   -0.1330    0.1608    0.0854    0.0870   -0.0749    0.0819    0.1297
  Pz  C    1   -0.0042    0.0673   -0.0838   -0.0168   -0.0161   -0.0430    0.0173    0.0258
  S   O    2   -0.0128    0.1397   -0.2521   -0.2056   -0.2104    0.1177    0.0329    0.0662
  Px  O    2    0.0008    0.0098    0.0029    0.0093   -0.0090    0.0463   -0.1125   -0.2112
  Py  O    2   -0.0010   -0.0236    0.0718    0.0920    0.1111   -0.1054    0.0188    0.0248
  Pz  O    2    0.0001    0.0119   -0.0448   -0.0345   -0.0410    0.0025    0.0145    0.0213
  S   N    3    0.0047   -0.0501   -0.1010   -0.1320   -0.1404    0.0948   -0.0249    0.0015
  Px  N    3   -0.0154    0.2634   -0.3168   -0.1141   -0.0954   -0.0312    0.0593    0.1340
  Py  N    3    0.0053   -0.0937   -0.0417   -0.1280   -0.1287   -0.0071    0.2406    0.3868
  Pz  N    3    0.0034    0.0009    0.0301    0.0957    0.0752   -0.0855   -0.0986   -0.1728
  S   H    4    0.0014   -0.0273   -0.0809   -0.1214   -0.1183    0.0246    0.1725    0.2524
  S   C    5   -0.0223    0.4065   -0.1265    0.1711    0.1856   -0.2098    0.0213    0.0221
  Px  C    5   -0.0038    0.0086    0.0401    0.0537    0.0748   -0.1477    0.1309    0.2027
  Py  C    5   -0.0036    0.0275   -0.2240   -0.0745   -0.0418   -0.1328    0.0381    0.1112
  Pz  C    5    0.0140    0.0158   -0.0364    0.1105    0.0396   -0.1606   -0.0373   -0.0926
  S   H    6   -0.0005    0.1936   -0.0499    0.1611    0.1185   -0.1879   -0.0089   -0.0494
  S   C    7   -0.0182    0.0383    0.3426   -0.0433   -0.0299    0.2725    0.0276    0.0262
  Px  C    7   -0.0061   -0.1091   -0.0123   -0.0699   -0.0416   -0.1726    0.0451    0.0976
  Py  C    7   -0.0311    0.1774   -0.0599    0.0676    0.1725   -0.0440    0.0111    0.0080
  Pz  C    7    0.0464    0.0742   -0.0077    0.1610   -0.0313   -0.0951   -0.0208   -0.0682
  S   H    8    0.0146    0.0263    0.1679    0.0285   -0.0566    0.1931   -0.0197   -0.0575
  S   H    9   -0.0393   -0.0011    0.1448   -0.1021    0.0345    0.1996    0.0223    0.0502
  S   C   10    0.0573   -0.3343    0.0229   -0.1041   -0.2183   -0.2236   -0.0217   -0.0120
  Px  C   10   -0.0285   -0.0414   -0.2007   -0.0075    0.0995   -0.1814   -0.0429   -0.0729
  Py  C   10   -0.1056    0.0261    0.1079   -0.1097    0.0874    0.0484    0.0349    0.0579
  Pz  C   10    0.1983    0.0551    0.0092    0.2468   -0.2030   -0.0043    0.0079    0.0073
  S   C   11   -0.3579   -0.2410   -0.2183   -0.0967    0.2474    0.0084   -0.0142   -0.0309
  Px  C   11   -0.1073    0.1389   -0.0492    0.2467    0.0034    0.1463    0.0151   -0.0032
  Py  C   11    0.0116   -0.0431    0.0160   -0.0986    0.0768    0.0218    0.0202    0.0459
  Pz  C   11    0.0779   -0.0627    0.0131   -0.0736   -0.1223   -0.2439   -0.0426   -0.0638
  S   H   12   -0.1723   -0.1202   -0.0842   -0.0982    0.1943    0.0988    0.0184    0.0358
  S   C   13   -0.3820    0.1599    0.0055    0.2789   -0.1017    0.1743    0.0342    0.0484
  Px  C   13    0.0618    0.1304    0.1646    0.0442   -0.1932    0.0159    0.0326    0.0815
  Py  C   13   -0.0764   -0.1086   -0.1398    0.0488    0.1470    0.0956    0.0085   -0.0007
  Pz  C   13    0.0446    0.0686    0.0796   -0.1052   -0.0759   -0.1935   -0.0412   -0.0684
  S   H   14   -0.1737    0.0797    0.0168    0.1904   -0.0720    0.1790    0.0475    0.0851
  S   C   15    0.0033    0.3603    0.3172   -0.1897   -0.1379   -0.1399   -0.0111   -0.0013
  Px  C   15   -0.0600    0.0140    0.0766    0.0103   -0.1147   -0.0012    0.0226    0.0642
  Py  C   15   -0.0874    0.0024   -0.0292    0.1208   -0.0773   -0.0003   -0.0027   -0.0089
  Pz  C   15    0.1902   -0.0088   -0.0066   -0.2064    0.2006   -0.0262   -0.0155   -0.0377
  S   H   16   -0.0130    0.1717    0.1911   -0.1037   -0.1131   -0.0656    0.0084    0.0389
  S   C   17    0.4658   -0.1401   -0.1708    0.2973   -0.1494    0.0789    0.0209    0.0465
  Px  C   17    0.0891    0.0645   -0.0451   -0.0892    0.1926    0.0193   -0.0067   -0.0253
  Py  C   17   -0.0651   -0.0779    0.0282    0.0281   -0.1851   -0.1657   -0.0224   -0.0297
  Pz  C   17    0.0226    0.0647   -0.0090    0.0841    0.0826    0.1956    0.0476    0.0814
  S   H   18    0.1996   -0.0512   -0.0691    0.2038   -0.0840    0.1295    0.0354    0.0701
  S   C   19    0.4405    0.1664    0.0118   -0.1776    0.3076    0.1393    0.0164    0.0107
  Px  C   19   -0.1220    0.1220    0.1670   -0.2152    0.0175   -0.1064   -0.0169   -0.0283
  Py  C   19    0.0331   -0.0339   -0.0461    0.0893   -0.0979   -0.0815   -0.0192   -0.0321
  Pz  C   19    0.0590   -0.0603   -0.0827    0.0821    0.0938    0.1725    0.0398    0.0683
  S   H   20    0.2031    0.0780    0.0069   -0.1054    0.2220    0.1610    0.0310    0.0449
  S   O   21   -0.0002   -0.0058   -0.0046    0.0027    0.0019    0.0012   -0.0003   -0.0021
  Px  O   21   -0.0000   -0.0012   -0.0008    0.0002    0.0001   -0.0002    0.0001    0.0012
  Py  O   21   -0.0001    0.0036    0.0057   -0.0051   -0.0048   -0.0040    0.0017    0.0129
  Pz  O   21    0.0001    0.0014    0.0032   -0.0036   -0.0028   -0.0029    0.0013    0.0104
  S   H   22    0.0000    0.0011    0.0031   -0.0031   -0.0026   -0.0023    0.0010    0.0072
  S   H   23   -0.0000   -0.0030   -0.0038    0.0033    0.0028    0.0025   -0.0011   -0.0081
  S   O   24    0.0001   -0.0042   -0.0018    0.0022    0.0066   -0.0098   -0.0001    0.0003
  Px  O   24   -0.0007    0.0001    0.0036    0.0022    0.0014    0.0022   -0.0047   -0.0140
  Py  O   24    0.0002    0.0002   -0.0021   -0.0024   -0.0028    0.0016    0.0027    0.0078
  Pz  O   24   -0.0015    0.0012   -0.0021   -0.0032    0.0001   -0.0050    0.0011    0.0028
  S   H   25    0.0008   -0.0013    0.0028    0.0025    0.0002    0.0041   -0.0021   -0.0057
  S   H   26    0.0002    0.0002   -0.0043   -0.0037   -0.0032    0.0005    0.0035    0.0096
  S   O   27   -0.0411    0.0024    0.0057   -0.0093   -0.0025   -0.0138   -0.0026   -0.0047
  Px  O   27    0.0107    0.0003   -0.0017    0.0008    0.0051    0.0080    0.0018    0.0035
  Py  O   27    0.0104   -0.0006   -0.0042    0.0084    0.0054    0.0220    0.0054    0.0112
  Pz  O   27   -0.0016    0.0001   -0.0015    0.0041    0.0027    0.0115    0.0030    0.0061
  S   H   28   -0.0158    0.0007    0.0027   -0.0042   -0.0033   -0.0106   -0.0025   -0.0050
  S   H   29    0.0034   -0.0006   -0.0037    0.0084    0.0034    0.0178    0.0042    0.0083
  S   O   30    0.0012   -0.0006   -0.0002    0.0005   -0.0007   -0.0003    0.0488   -0.0316
  Px  O   30   -0.0005   -0.0000    0.0007   -0.0017    0.0008    0.0038   -0.0255    0.0363
  Py  O   30    0.0006    0.0002   -0.0014    0.0008   -0.0002   -0.0011   -0.0790    0.0823
  Pz  O   30   -0.0010    0.0003    0.0026   -0.0057    0.0019    0.0149   -0.1477    0.1984
  S   H   31   -0.0002    0.0003    0.0005   -0.0026    0.0009    0.0064   -0.1048    0.1193
  S   H   32    0.0007   -0.0002   -0.0013    0.0030   -0.0009   -0.0074    0.0680   -0.0930
  S   O   33    0.0003   -0.0015    0.0028    0.0020    0.0019    0.0003   -0.0029   -0.0049
  Px  O   33   -0.0001    0.0006   -0.0025   -0.0031   -0.0032   -0.0004    0.0108    0.0246
  Py  O   33   -0.0000    0.0002   -0.0005   -0.0007   -0.0008   -0.0011    0.0065    0.0140
  Pz  O   33    0.0000   -0.0003    0.0008    0.0007    0.0005    0.0001   -0.0015   -0.0036
  S   H   34    0.0001   -0.0006    0.0016    0.0016    0.0017    0.0004   -0.0059   -0.0132
  S   H   35   -0.0000    0.0003   -0.0015   -0.0019   -0.0020   -0.0004    0.0062    0.0131
  S   O   36   -0.0025    0.0003    0.0004   -0.0008   -0.0001   -0.0011   -0.0005   -0.0011
  Px  O   36    0.0005    0.0001   -0.0001    0.0001    0.0004    0.0007   -0.0003   -0.0018
  Py  O   36    0.0000   -0.0001    0.0001   -0.0003   -0.0004   -0.0013    0.0001    0.0012
  Pz  O   36   -0.0008    0.0001    0.0003   -0.0008   -0.0001   -0.0012   -0.0001    0.0002
  S   H   37   -0.0001    0.0001   -0.0002    0.0003    0.0003    0.0011    0.0000   -0.0007
  S   H   38   -0.0009   -0.0000    0.0002   -0.0002   -0.0003   -0.0008    0.0002    0.0014
  S   O   39   -0.0002    0.0052    0.0023    0.0054    0.0046   -0.0008   -0.0014   -0.0199
  Px  O   39   -0.0000   -0.0001   -0.0006    0.0014    0.0019   -0.0001   -0.0950    0.0510
  Py  O   39    0.0000    0.0005    0.0015    0.0019    0.0009   -0.0015    0.1009   -0.0814
  Pz  O   39    0.0001   -0.0035   -0.0072   -0.0227   -0.0250    0.0034    0.6857   -0.3549
  S   H   40   -0.0001    0.0028    0.0036    0.0109    0.0119   -0.0015   -0.3179    0.1656
  S   H   41    0.0001   -0.0018   -0.0029   -0.0115   -0.0126    0.0015    0.3335   -0.1673
  S   O   42   -0.0008   -0.0057    0.0015   -0.0032   -0.0018    0.0029    0.0007    0.0035
  Px  O   42    0.0001    0.0006   -0.0005    0.0008   -0.0009    0.0004   -0.0037   -0.0118
  Py  O   42   -0.0003   -0.0002   -0.0001   -0.0026   -0.0020    0.0036   -0.0046   -0.0151
  Pz  O   42   -0.0001   -0.0038    0.0015   -0.0049   -0.0035    0.0068   -0.0003    0.0001
  S   H   43   -0.0004   -0.0013    0.0001   -0.0018   -0.0011    0.0019   -0.0018   -0.0060
  S   H   44    0.0001   -0.0004   -0.0002    0.0015    0.0003   -0.0013   -0.0002   -0.0006
  S   O   45   -0.0265    0.0072    0.0022   -0.0131    0.0062   -0.0094   -0.0019   -0.0035
  Px  O   45    0.0091   -0.0026   -0.0033    0.0126   -0.0050    0.0109    0.0070    0.0206
  Py  O   45   -0.0025    0.0002   -0.0007    0.0060   -0.0031    0.0065    0.0046    0.0142
  Pz  O   45   -0.0022    0.0002    0.0006   -0.0032    0.0014   -0.0022    0.0027    0.0106
  S   H   46   -0.0084    0.0024    0.0017   -0.0054    0.0021   -0.0044   -0.0047   -0.0147
  S   H   47   -0.0049    0.0001   -0.0005    0.0047   -0.0024    0.0054    0.0044    0.0132
  S   O   48    0.0158    0.0091   -0.0199    0.0172   -0.0074   -0.0293   -0.0032   -0.0060
  Px  O   48   -0.0031   -0.0032   -0.0029   -0.0007    0.0028   -0.0110   -0.0017   -0.0065
  Py  O   48   -0.0032   -0.0035    0.0187   -0.0287    0.0095    0.0767    0.0113    0.0406
  Pz  O   48   -0.0067   -0.0066    0.0208   -0.0279    0.0060    0.0702    0.0096    0.0385
  S   H   49    0.0067    0.0049   -0.0155    0.0186   -0.0046   -0.0464   -0.0063   -0.0248
  S   H   50   -0.0024   -0.0030    0.0193   -0.0250    0.0073    0.0636    0.0086    0.0297
  S   O   51   -0.0033   -0.0545    0.0139   -0.0192   -0.0040    0.0107    0.0113    0.0246
  Px  O   51   -0.0000   -0.0075    0.0039    0.0007    0.0038   -0.0029    0.0171    0.0528
  Py  O   51   -0.0003   -0.0069    0.0010   -0.0002    0.0028   -0.0055    0.0011    0.0054
  Pz  O   51   -0.0006   -0.0129    0.0091   -0.0142    0.0026    0.0042    0.0472    0.1424
  S   H   52   -0.0002    0.0066   -0.0088    0.0093   -0.0029   -0.0029   -0.0306   -0.0865
  S   H   53   -0.0010   -0.0205    0.0069   -0.0062    0.0029   -0.0009    0.0229    0.0685
  S   O   54    0.0001   -0.0011    0.0062    0.0054    0.0049    0.0017   -0.0202   -0.0088
  Px  O   54   -0.0001    0.0011    0.0013    0.0048    0.0054   -0.0016   -0.0416   -0.0370
  Py  O   54    0.0000   -0.0004    0.0014    0.0014    0.0013    0.0009   -0.0070   -0.0075
  Pz  O   54    0.0000   -0.0003   -0.0002   -0.0007   -0.0010    0.0011    0.0086    0.0130
  S   H   55    0.0001   -0.0010   -0.0011   -0.0036   -0.0039    0.0006    0.0265    0.0209
  S   H   56   -0.0000    0.0008    0.0006    0.0021    0.0024   -0.0014   -0.0156   -0.0170
  S   H   57    0.0051   -0.1162    0.2015    0.1493    0.1734   -0.1528    0.1469    0.2370
  S   H   58   -0.0150    0.1885   -0.1039    0.0634    0.1012   -0.1880    0.0904    0.1578


   Root No.      25        26        27        28        29        30        31        32

                25 A      26 A      27 A      28 A      29 A      30 A      31 A      32 A   

               -18.014   -17.864   -17.760   -17.720   -17.666   -17.472   -17.430   -17.387
  
  S   C    1   -0.0011    0.0042    0.0249   -0.0026   -0.0065    0.0029    0.0024    0.0007
  Px  C    1    0.0142   -0.0252   -0.0053    0.0354    0.0292   -0.0128   -0.0057    0.0243
  Py  C    1   -0.0033    0.0012   -0.0276    0.0117   -0.0998   -0.0195   -0.0039   -0.0093
  Pz  C    1    0.0019   -0.0028    0.0020    0.0074   -0.0527   -0.0094   -0.0038   -0.0156
  S   O    2   -0.0030    0.0007   -0.0490    0.0016   -0.0398   -0.0123   -0.0039   -0.0020
  Px  O    2    0.0090   -0.0200   -0.0005    0.0375   -0.0181   -0.0107   -0.0058   -0.0111
  Py  O    2    0.0005    0.0059    0.0432   -0.0152    0.0419    0.0171    0.0028   -0.0166
  Pz  O    2    0.0020   -0.0094   -0.0357    0.0356   -0.1410   -0.0333   -0.0081   -0.0087
  S   N    3   -0.0007    0.0057   -0.0153   -0.0136    0.0129    0.0024    0.0002    0.0018
  Px  N    3   -0.0048    0.0162    0.0334   -0.0327    0.0208    0.0172    0.0051   -0.0144
  Py  N    3   -0.0127    0.0116   -0.0818   -0.0052   -0.1427   -0.0197   -0.0091   -0.0568
  Pz  N    3    0.0115   -0.0155    0.0193    0.0186   -0.0241   -0.0157   -0.0058    0.0117
  S   H    4   -0.0100    0.0065   -0.0464   -0.0026   -0.0668   -0.0055   -0.0034   -0.0353
  S   C    5    0.0012    0.0023    0.0292   -0.0058    0.0119    0.0051    0.0032    0.0060
  Px  C    5   -0.0028    0.0082   -0.0361   -0.0025   -0.0752   -0.0129   -0.0060   -0.0251
  Py  C    5    0.0029    0.0179    0.0437   -0.0268   -0.0184    0.0021   -0.0021   -0.0142
  Pz  C    5    0.0114   -0.0171   -0.0085    0.0311   -0.0813   -0.0313   -0.0139   -0.0049
  S   H    6    0.0075   -0.0128   -0.0013    0.0250   -0.0617   -0.0235   -0.0102   -0.0025
  S   C    7   -0.0117   -0.0030   -0.0533   -0.0018    0.0280    0.0103    0.0064    0.0002
  Px  C    7    0.0080    0.0070   -0.0550   -0.0132   -0.0484   -0.0143   -0.0092   -0.0138
  Py  C    7   -0.0036    0.0031    0.0328   -0.0025    0.0438    0.0139    0.0083    0.0151
  Pz  C    7    0.0036   -0.0142   -0.0619    0.0170   -0.0055   -0.0072   -0.0022    0.0012
  S   H    8   -0.0063   -0.0097   -0.0232    0.0122    0.0144    0.0039    0.0032   -0.0007
  S   H    9   -0.0086    0.0090    0.0578   -0.0071    0.0165    0.0102    0.0053    0.0024
  S   C   10    0.0036    0.0010   -0.0163   -0.0038   -0.0087   -0.0039   -0.0040   -0.0046
  Px  C   10   -0.0010   -0.0013    0.0716    0.0083    0.0334    0.0092    0.0055    0.0153
  Py  C   10    0.0036    0.0007   -0.0704   -0.0067   -0.0246   -0.0091   -0.0049   -0.0058
  Pz  C   10   -0.0025   -0.0009    0.0031    0.0034    0.0042    0.0027    0.0014   -0.0036
  S   C   11    0.0134   -0.0042   -0.0262    0.0031   -0.0072   -0.0070   -0.0031    0.0044
  Px  C   11   -0.0099   -0.0049    0.0020    0.0101    0.0207    0.0091    0.0065    0.0013
  Py  C   11    0.0150    0.0033   -0.0514   -0.0101   -0.0343   -0.0140   -0.0084   -0.0071
  Pz  C   11   -0.0137   -0.0010    0.0608    0.0070    0.0376    0.0132    0.0068    0.0119
  S   H   12    0.0196    0.0016   -0.0528   -0.0080   -0.0380   -0.0162   -0.0089   -0.0062
  S   C   13   -0.0056    0.0018   -0.0152   -0.0033   -0.0046    0.0021    0.0005   -0.0079
  Px  C   13    0.0070    0.0095   -0.0276   -0.0178   -0.0352   -0.0097   -0.0081   -0.0142
  Py  C   13    0.0070   -0.0038   -0.0312    0.0038   -0.0043   -0.0027   -0.0006   -0.0022
  Pz  C   13   -0.0178   -0.0021    0.0695    0.0095    0.0392    0.0127    0.0080    0.0177
  S   H   14    0.0090    0.0052   -0.0533   -0.0127   -0.0347   -0.0091   -0.0068   -0.0180
  S   C   15   -0.0010    0.0021   -0.0012   -0.0041   -0.0114   -0.0066   -0.0037    0.0039
  Px  C   15    0.0312    0.0073   -0.0484   -0.0172   -0.0469   -0.0183   -0.0127   -0.0105
  Py  C   15   -0.0158    0.0007    0.0391    0.0030    0.0229    0.0105    0.0059    0.0044
  Pz  C   15   -0.0000   -0.0064   -0.0231    0.0082    0.0005   -0.0033    0.0002    0.0035
  S   H   16    0.0287    0.0052   -0.0366   -0.0128   -0.0379   -0.0162   -0.0106   -0.0053
  S   C   17    0.0108    0.0072    0.0199   -0.0098   -0.0063   -0.0005   -0.0013   -0.0044
  Px  C   17   -0.0108   -0.0026    0.0253    0.0070    0.0239    0.0106    0.0067    0.0014
  Py  C   17   -0.0011   -0.0012    0.0129    0.0035    0.0058    0.0001   -0.0003    0.0041
  Pz  C   17    0.0142    0.0049   -0.0527   -0.0127   -0.0345   -0.0134   -0.0073   -0.0026
  S   H   18    0.0160    0.0067   -0.0258   -0.0135   -0.0281   -0.0119   -0.0066    0.0017
  S   C   19   -0.0043   -0.0037   -0.0403    0.0027   -0.0078   -0.0022    0.0001   -0.0065
  Px  C   19   -0.0022   -0.0047   -0.0312    0.0047   -0.0096   -0.0076   -0.0032    0.0046
  Py  C   19   -0.0106    0.0009    0.0664    0.0048    0.0321    0.0122    0.0075    0.0095
  Pz  C   19    0.0164    0.0034   -0.0571   -0.0107   -0.0331   -0.0103   -0.0074   -0.0127
  S   H   20    0.0094   -0.0012   -0.0761   -0.0049   -0.0330   -0.0112   -0.0071   -0.0126
  S   O   21   -0.0741    0.0004   -0.0019   -0.0005   -0.0011   -0.0002   -0.0001   -0.0001
  Px  O   21    0.0718   -0.0005    0.0028    0.0007    0.0019    0.0006    0.0003    0.0002
  Py  O   21    0.6358   -0.0041    0.0217    0.0054    0.0145    0.0039    0.0023    0.0013
  Pz  O   21    0.5362   -0.0035    0.0187    0.0047    0.0126    0.0034    0.0021    0.0011
  S   H   22    0.3538   -0.0023    0.0119    0.0030    0.0079    0.0021    0.0013    0.0007
  S   H   23   -0.4063    0.0026   -0.0140   -0.0035   -0.0093   -0.0025   -0.0015   -0.0008
  S   O   24    0.0001    0.0005    0.0027   -0.0011    0.0043    0.0044   -0.0022   -0.0151
  Px  O   24   -0.0003   -0.0023    0.0109    0.0037    0.0221    0.0672   -0.0333   -0.3490
  Py  O   24    0.0001   -0.0000   -0.0122    0.0043   -0.0382   -0.0522    0.0208    0.2563
  Pz  O   24   -0.0001   -0.0019   -0.0099    0.0126   -0.0544   -0.0290    0.0023    0.1349
  S   H   25   -0.0001    0.0002    0.0075   -0.0045    0.0305    0.0313   -0.0101   -0.1549
  S   H   26    0.0001    0.0004   -0.0113    0.0029   -0.0337   -0.0489    0.0200    0.2415
  S   O   27   -0.0011   -0.0003    0.0029    0.0006    0.0031   -0.0005    0.0015    0.0077
  Px  O   27    0.0009    0.0002   -0.0043   -0.0007   -0.0031   -0.0007   -0.0010   -0.0031
  Py  O   27    0.0029    0.0008   -0.0108   -0.0022   -0.0100   -0.0004   -0.0044   -0.0190
  Pz  O   27    0.0016    0.0004   -0.0057   -0.0011   -0.0054    0.0001   -0.0025   -0.0112
  S   H   28   -0.0013   -0.0004    0.0050    0.0010    0.0044    0.0005    0.0018    0.0068
  S   H   29    0.0021    0.0006   -0.0071   -0.0014   -0.0068    0.0001   -0.0031   -0.0138
  S   O   30    0.0002    0.0012    0.0106    0.0251    0.0089   -0.0001    0.0000    0.0025
  Px  O   30   -0.0025   -0.0034    0.0157    0.1369    0.0360   -0.0005   -0.0002    0.0035
  Py  O   30   -0.0040   -0.0079    0.0032    0.2039    0.0534   -0.0008   -0.0003    0.0032
  Pz  O   30   -0.0135   -0.0189    0.0782    0.7213    0.1893   -0.0029   -0.0009    0.0178
  S   H   31   -0.0068   -0.0102    0.0292    0.3356    0.0865   -0.0014   -0.0005    0.0068
  S   H   32    0.0065    0.0088   -0.0391   -0.3472   -0.0913    0.0014    0.0004   -0.0088
  S   O   33    0.0000    0.0009    0.0053   -0.0057    0.0259    0.0125   -0.0015   -0.0428
  Px  O   33   -0.0005   -0.0028   -0.0305    0.0266   -0.1475   -0.1084    0.0235    0.4693
  Py  O   33   -0.0004   -0.0018   -0.0153    0.0157   -0.0819   -0.0508    0.0075    0.2073
  Pz  O   33    0.0001   -0.0005    0.0017    0.0010    0.0026    0.0102   -0.0050   -0.0569
  S   H   34    0.0003    0.0015    0.0158   -0.0140    0.0773    0.0561   -0.0118   -0.2418
  S   H   35   -0.0002   -0.0018   -0.0155    0.0149   -0.0778   -0.0504    0.0091    0.2074
  S   O   36   -0.0001   -0.0002    0.0003    0.0007   -0.0004   -0.0190    0.0202   -0.0116
  Px  O   36    0.0006   -0.0025   -0.0072    0.0143   -0.0554    0.3417   -0.3505    0.0941
[...]
 PZ  N   3   0.00023    -0.00000    -0.00022    -0.00003    -0.00001    -0.00001
  
  S  H   4  -0.00024     0.00000    -0.00039     0.00013     0.00004     0.00000
  
  S  C   5   0.00004     0.00001    -0.00177    -0.00025     0.00015     0.00003
 PX  C   5  -0.00000    -0.00001    -0.00009     0.00017    -0.00006    -0.00000
 PY  C   5   0.00001    -0.00001     0.00037     0.00003    -0.00007    -0.00000
 PZ  C   5   0.00005    -0.00001    -0.00272    -0.00016     0.00008     0.00005
  
  S  H   6  -0.00003    -0.00000     0.00394     0.00008    -0.00011    -0.00002
  
  S  C   7   0.00019     0.00005    -0.00049    -0.00094     0.00018    -0.00000
 PX  C   7  -0.00029    -0.00008     0.00059     0.00135    -0.00072    -0.00003
 PY  C   7  -0.00019    -0.00005     0.00026     0.00091    -0.00017     0.00000
 PZ  C   7   0.00014     0.00002    -0.00024    -0.00061     0.00015     0.00000
  
  S  H   8  -0.00010    -0.00013     0.00101     0.00232    -0.00089     0.00000
  
  S  H   9  -0.00001    -0.00003    -0.00003     0.00004    -0.00010     0.00000
  
  S  C  10  -0.00002     0.00002     0.00006     0.00004    -0.00049    -0.00005
 PX  C  10  -0.00000    -0.00005     0.00009     0.00024    -0.00081    -0.00001
 PY  C  10  -0.00003    -0.00003     0.00000     0.00013     0.00009     0.00007
 PZ  C  10  -0.00002    -0.00006     0.00007     0.00013    -0.00049    -0.00001
  
  S  C  11   0.00003    -0.00002    -0.00010    -0.00014     0.00047     0.00003
 PX  C  11  -0.00001    -0.00019     0.00005     0.00003    -0.00038    -0.00003
 PY  C  11   0.00003    -0.00028    -0.00006    -0.00013     0.00016     0.00000
 PZ  C  11   0.00004    -0.00019    -0.00016    -0.00023     0.00066     0.00004
  
  S  H  12  -0.00000    -0.00002     0.00003     0.00002    -0.00016    -0.00001
  
  S  C  13  -0.00000    -0.00007    -0.00003    -0.00001     0.00016     0.00002
 PX  C  13   0.00001     0.00009     0.00000    -0.00004     0.00004    -0.00002
 PY  C  13   0.00001     0.00029     0.00001    -0.00005     0.00018    -0.00003
 PZ  C  13   0.00001     0.00004    -0.00002    -0.00005     0.00022    -0.00000
  
  S  H  14   0.00001     0.00003    -0.00003    -0.00003     0.00012     0.00001
  
  S  C  15   0.00001     0.00012    -0.00010    -0.00007     0.00051     0.00002
 PX  C  15  -0.00002     0.00002     0.00012     0.00013    -0.00055    -0.00002
 PY  C  15  -0.00003     0.00035     0.00010     0.00016    -0.00047    -0.00001
 PZ  C  15  -0.00000     0.00030    -0.00008    -0.00002     0.00047     0.00003
  
  S  H  16  -0.00000     0.00007     0.00005     0.00003    -0.00019    -0.00001
  
  S  C  17   0.00007    -0.00005    -0.00121    -0.00075     0.00688     0.00047
 PX  C  17  -0.00006     0.00057     0.00086     0.00054    -0.00427    -0.00037
 PY  C  17  -0.00000     0.00073     0.00017     0.00003    -0.00034    -0.00007
 PZ  C  17   0.00012     0.00052    -0.00127    -0.00098     0.00651     0.00041
  
  S  H  18  -0.00002     0.00005     0.00159     0.00062    -0.01425    -0.00093
  
  S  C  19  -0.00001    -0.00082     0.00014     0.00008    -0.00052     0.00003
 PX  C  19   0.00001    -0.00089    -0.00017    -0.00007     0.00026     0.00005
 PY  C  19  -0.00002    -0.00023     0.00006     0.00009    -0.00060    -0.00003
 PZ  C  19  -0.00001    -0.00132    -0.00009    -0.00000     0.00040     0.00009
  
  S  H  20  -0.00001     0.00159     0.00008     0.00007    -0.00047    -0.00013
  
  S  O  21   0.00000    -0.00000    -0.00000    -0.00000     0.00000     0.00000
 PX  O  21   0.00000    -0.00000    -0.00000    -0.00000     0.00000     0.00000
 PY  O  21   0.00000     0.00000    -0.00000    -0.00000    -0.00000     0.00000
 PZ  O  21   0.00000    -0.00000    -0.00000    -0.00000     0.00000     0.00000
  
  S  H  22  -0.00000     0.00001     0.00000     0.00000    -0.00000    -0.00000
  
  S  H  23  -0.00000     0.00001     0.00000     0.00000    -0.00000    -0.00000
  
  S  O  24   0.01635     0.00011    -0.00061    -0.02819     0.00056     0.00005
 PX  O  24  -0.01864     0.00007    -0.00108     0.74433     0.00011     0.00006
 PY  O  24   0.02813     0.00003    -0.00021     0.59616     0.00032     0.00004
 PZ  O  24  -0.00694    -0.00019    -0.00037     0.28059    -0.00087     0.00002
  
  S  H  25  -0.00969    -0.00045     0.00072     0.00063    -0.00190    -0.00005
  
  S  H  26  -0.07923    -0.00005     0.00034     0.00237    -0.00079    -0.00006
  
  S  O  27   0.00004    -0.00164    -0.00007    -0.00016     0.00086     0.00001
 PX  O  27  -0.00006     0.63008     0.00008     0.00018    -0.00069    -0.00001
 PY  O  27   0.00005    -0.47739    -0.00012    -0.00029     0.00123     0.00001
 PZ  O  27   0.00009     0.61245    -0.00017    -0.00040     0.00167     0.00002
  
  S  H  28  -0.00004     0.00000     0.00004     0.00004    -0.00041    -0.00000
  
  S  H  29  -0.00011     0.00000     0.00023     0.00061    -0.00432    -0.00002
  
  S  O  30   0.00000     0.00000     0.00000    -0.00000     0.00000    -0.00000
 PX  O  30   0.00000     0.00000    -0.00000    -0.00000     0.00000     0.00000
 PY  O  30   0.00000     0.00000     0.00000    -0.00000     0.00000    -0.00000
 PZ  O  30   0.00000     0.00000     0.00000    -0.00000     0.00000    -0.00000
  
  S  H  31  -0.00000    -0.00000    -0.00000     0.00000    -0.00000     0.00000
  
  S  H  32  -0.00000    -0.00000    -0.00000     0.00000    -0.00000     0.00000
  
  S  O  33   0.01830     0.00000     0.00129    -0.00064     0.00001     0.00001
 PX  O  33  -0.53999     0.00000     0.00134    -0.00102     0.00002     0.00001
 PY  O  33   0.83238    -0.00000     0.00114    -0.00014    -0.00006    -0.00000
 PZ  O  33  -0.08565     0.00000     0.00189    -0.00064    -0.00003     0.00001
  
  S  H  34  -0.00170    -0.00000    -0.00059     0.00004    -0.00002    -0.00001
  
  S  H  35   0.00077    -0.00000    -0.00550     0.00205     0.00007    -0.00001
  
  S  O  36   0.00001    -0.00000    -0.00028    -0.00012    -0.00022    -0.00050
 PX  O  36  -0.00002    -0.00000     0.00053     0.00021     0.00031     0.50023
 PY  O  36  -0.00002     0.00000     0.00016     0.00015     0.00010    -0.00431
 PZ  O  36   0.00000     0.00000    -0.00014    -0.00004    -0.00019     0.86587
  
  S  H  37  -0.00002     0.00000     0.00026     0.00019     0.00027     0.00000
  
  S  H  38  -0.00002     0.00000     0.00077     0.00021     0.00083     0.00002
  
  S  O  39   0.00001    -0.00000     0.00001    -0.00000    -0.00000    -0.00000
 PX  O  39  -0.00001     0.00000    -0.00001     0.00000     0.00000     0.00000
 PY  O  39  -0.00000    -0.00000     0.00000     0.00000    -0.00000    -0.00000
 PZ  O  39   0.00001    -0.00000     0.00001    -0.00000    -0.00000    -0.00000
  
  S  H  40  -0.00001     0.00000    -0.00001     0.00000     0.00000     0.00000
  
  S  H  41  -0.00001     0.00000    -0.00002     0.00000     0.00000     0.00000
  
  S  O  42   0.00003     0.00000    -0.00064    -0.00011     0.00001     0.00032
 PX  O  42  -0.00002    -0.00000    -0.00067     0.00006     0.00001     0.00048
 PY  O  42  -0.00001    -0.00000    -0.00028     0.00005    -0.00001    -0.00007
 PZ  O  42  -0.00000     0.00000    -0.00012     0.00000    -0.00000     0.00004
  
  S  H  43  -0.00003    -0.00000     0.00125     0.00013    -0.00001    -0.00024
  
  S  H  44  -0.00003     0.00000     0.00166     0.00012    -0.00002    -0.00123
  
  S  O  45   0.00158     0.00003    -0.01373    -0.01856     0.00264     0.00091
 PX  O  45  -0.00374    -0.00006     0.00125     0.03547    -0.50785    -0.00009
 PY  O  45   0.00106     0.00001    -0.02673    -0.01000    -0.16600     0.00178
 PZ  O  45  -0.00211    -0.00003    -0.00443     0.01942     0.84509     0.00028
  
  S  H  46  -0.00568    -0.00014     0.00952     0.09376     0.00007    -0.00065
  
  S  H  47  -0.00097    -0.00001     0.05722     0.01124     0.00017    -0.00373
  
  S  O  48   0.00000     0.00003     0.00000    -0.00000     0.00000     0.00000
 PX  O  48  -0.00000    -0.00002    -0.00000     0.00000    -0.00000     0.00000
 PY  O  48   0.00001     0.00003     0.00001    -0.00001     0.00001    -0.00000
 PZ  O  48   0.00000    -0.00003    -0.00000    -0.00000    -0.00000     0.00000
  
  S  H  49  -0.00000    -0.00007    -0.00001     0.00000    -0.00000    -0.00000
  
  S  H  50  -0.00001    -0.00007    -0.00002     0.00001    -0.00001     0.00000
  
  S  O  51   0.00034     0.00000    -0.01347    -0.00140     0.00018     0.00031
 PX  O  51   0.00008     0.00000     0.77631    -0.00080     0.00004     0.00036
 PY  O  51   0.00014    -0.00000    -0.56912     0.00016     0.00016     0.00018
 PZ  O  51  -0.00042    -0.00000    -0.26246     0.00117    -0.00033     0.00011
  
  S  H  52  -0.00074    -0.00000     0.00051     0.00301    -0.00079    -0.00025
  
  S  H  53  -0.00043    -0.00000     0.00015     0.00160    -0.00006    -0.00093
  
  S  O  54   0.00000    -0.00000     0.00000    -0.00000    -0.00000     0.00000
 PX  O  54  -0.00000     0.00000    -0.00001     0.00000     0.00000    -0.00000
 PY  O  54  -0.00000     0.00000    -0.00000     0.00000     0.00000    -0.00000
 PZ  O  54  -0.00000     0.00000    -0.00001     0.00000     0.00000    -0.00000
  
  S  H  55  -0.00000     0.00000    -0.00001     0.00000     0.00000    -0.00000
  
  S  H  56  -0.00000     0.00000    -0.00000     0.00000     0.00000    -0.00000
  
  S  H  57   0.00050    -0.00000    -0.00021    -0.00014    -0.00000     0.00001
  
  S  H  58   0.00003     0.00001     0.00009    -0.00008     0.00004    -0.00000




    ROOT NO.   73          74          75          76          77

           -11.96094   -11.49781   -11.13679   -10.71468   -10.70915
  
  
  S  C   1  -0.00005     0.04013    -0.00030     0.00017    -0.00012
 PX  C   1  -0.00028     0.14639    -0.00188     0.00131    -0.00132
 PY  C   1  -0.00040     0.00528    -0.00229     0.00162    -0.00164
 PZ  C   1  -0.00079    -0.03711    -0.00273     0.00211    -0.00208
  
  S  O   2   0.00000     0.00085    -0.00028     0.00020    -0.00024
 PX  O   2   0.00008     0.95242     0.00018    -0.00008     0.00007
 PY  O   2   0.00012    -0.19153    -0.00004    -0.00006     0.00007
 PZ  O   2   0.00029    -0.11425     0.00130    -0.00110     0.00127
  
  S  N   3  -0.00007    -0.06411     0.00225    -0.00141     0.00155
 PX  N   3  -0.00018     0.04787     0.00218    -0.00138     0.00167
 PY  N   3   0.00010     0.02100    -0.00214     0.00163    -0.00203
 PZ  N   3   0.00006    -0.03398     0.00036     0.00010    -0.00037
  
  S  H   4   0.00024     0.04594    -0.00281     0.00208    -0.00223
  
  S  C   5   0.00322     0.01100    -0.02051     0.01281    -0.01579
 PX  C   5   0.00015    -0.03568     0.00267    -0.00177     0.00170
 PY  C   5  -0.00087     0.01371     0.02278    -0.01612     0.01919
 PZ  C   5   0.00435    -0.01021     0.01597    -0.01076     0.01249
  
  S  H   6  -0.00700     0.00454     0.00013    -0.00012     0.00170
  
  S  C   7  -0.00008    -0.00951     0.00418    -0.00303     0.00270
 PX  C   7   0.00004     0.00646     0.00003     0.00240    -0.00584
 PY  C   7  -0.00021     0.00507     0.02374    -0.00875     0.00970
 PZ  C   7   0.00000    -0.00384     0.01136    -0.00507     0.00497
  
  S  H   8  -0.00014     0.01471     0.01665    -0.01192     0.01275
  
  S  H   9   0.00035    -0.00112     0.00990    -0.00849     0.01102
  
  S  C  10  -0.00003     0.00358    -0.00130     0.00011    -0.00402
 PX  C  10   0.00001    -0.00325     0.26721    -0.12582     0.18456
 PY  C  10  -0.00009     0.00405     0.39512    -0.18271     0.27439
 PZ  C  10  -0.00005    -0.00008     0.23285    -0.10429     0.15619
  
  S  C  11  -0.00001    -0.00084     0.01627     0.00420    -0.00253
 PX  C  11   0.00003     0.00034     0.34878     0.04078    -0.03458
 PY  C  11   0.00003    -0.00017     0.54652     0.06324    -0.05413
 PZ  C  11   0.00002    -0.00108     0.30560     0.03780    -0.03068
  
  S  H  12   0.00001    -0.00038    -0.00326    -0.00125     0.00187
  
  S  C  13   0.00000     0.00034    -0.00328    -0.01473     0.00606
 PX  C  13   0.00001    -0.00060     0.15721     0.22969    -0.08190
 PY  C  13   0.00002     0.00005     0.30016     0.45044    -0.16068
 PZ  C  13   0.00001    -0.00016     0.17043     0.25270    -0.08935
  
  S  H  14  -0.00000    -0.00022    -0.00122    -0.00124    -0.00031
  
  S  C  15   0.00000     0.00011     0.00155    -0.02298    -0.00615
 PX  C  15  -0.00002     0.00009    -0.03384     0.25726     0.04492
 PY  C  15  -0.00004     0.00038    -0.07532     0.54841     0.08573
 PZ  C  15  -0.00002     0.00014    -0.04078     0.33870     0.04939
  
  S  H  16  -0.00000     0.00007     0.00072     0.00105    -0.00365
  
  S  C  17   0.00005    -0.00017    -0.00400     0.00086    -0.03709
 PX  C  17  -0.00000    -0.00009     0.04785    -0.05283     0.34569
 PY  C  17   0.00004    -0.00033     0.05516    -0.06040     0.50056
 PZ  C  17   0.00004    -0.00032     0.04375    -0.04481     0.33259
  
  S  H  18  -0.00007    -0.00016     0.00286    -0.00483     0.00706
  
  S  C  19  -0.00001     0.00025    -0.00986     0.01572     0.02775
 PX  C  19   0.00002    -0.00042    -0.09698     0.15984     0.27786
 PY  C  19   0.00001     0.00017    -0.13574     0.23574     0.37541
 PZ  C  19   0.00001    -0.00002    -0.11951     0.20013     0.32521
  
  S  H  20   0.00000    -0.00007     0.00765    -0.00906    -0.01636
  
  S  O  21  -0.00000     0.00000    -0.00008     0.00033     0.00009
 PX  O  21  -0.00000     0.00000    -0.00009     0.00047     0.00008
 PY  O  21   0.00000    -0.00000     0.00002    -0.00021     0.00003
 PZ  O  21  -0.00000     0.00000    -0.00007     0.00025     0.00010
  
  S  H  22   0.00000    -0.00000     0.00027    -0.00130    -0.00023
  
  S  H  23   0.00000    -0.00000     0.00021    -0.00084    -0.00018
  
  S  O  24  -0.00001     0.00078    -0.00011     0.00007     0.00001
 PX  O  24  -0.00000    -0.00169    -0.00003     0.00004     0.00000
 PY  O  24  -0.00002     0.00185    -0.00010     0.00008    -0.00006
 PZ  O  24  -0.00000     0.00006     0.00015    -0.00012     0.00004
  
  S  H  25   0.00001     0.00058     0.00030    -0.00016    -0.00018
  
  S  H  26   0.00003    -0.00538     0.00021    -0.00013     0.00004
  
  S  O  27  -0.00000    -0.00001    -0.00012     0.00020     0.00332
 PX  O  27   0.00000     0.00001    -0.00000    -0.00002    -0.00319
 PY  O  27  -0.00000    -0.00001     0.00023     0.00015     0.00279
 PZ  O  27  -0.00000    -0.00002    -0.00003     0.00036     0.00562
  
  S  H  28  -0.00000     0.00000     0.00069    -0.00079    -0.00522
  
  S  H  29   0.00000     0.00001     0.00050     0.00020    -0.01920
  
  S  O  30  -0.00000    -0.00024    -0.00006     0.00005    -0.00007
 PX  O  30  -0.00000    -0.00002    -0.00001     0.00001    -0.00001
 PY  O  30  -0.00000    -0.00060    -0.00008     0.00004    -0.00006
 PZ  O  30   0.00000    -0.00026     0.00000     0.00001    -0.00002
  
  S  H  31   0.00001     0.00073     0.00016    -0.00011     0.00014
  
  S  H  32   0.00001     0.00018     0.00017    -0.00013     0.00017
  
  S  O  33  -0.00002     0.00331    -0.00003     0.00002    -0.00002
 PX  O  33  -0.00003     0.00177    -0.00003     0.00002    -0.00002
 PY  O  33  -0.00002     0.00131    -0.00001     0.00001    -0.00001
 PZ  O  33  -0.00003     0.00466    -0.00003     0.00002    -0.00002
  
  S  H  34   0.00001    -0.00488     0.00004    -0.00003     0.00002
  
  S  H  35   0.00006    -0.01119     0.00007    -0.00005     0.00004
  
  S  O  36  -0.00021    -0.00003     0.00000    -0.00000    -0.00006
 PX  O  36   0.00034     0.00006     0.00001    -0.00001     0.00003
 PY  O  36   0.00006     0.00001    -0.00001     0.00001     0.00009
 PZ  O  36  -0.00019    -0.00002     0.00000    -0.00000    -0.00003
  
  S  H  37   0.00019     0.00003    -0.00002     0.00002     0.00025
  
  S  H  38   0.00083     0.00007     0.00000    -0.00001     0.00012
  
  S  O  39  -0.00001    -0.00120     0.00005    -0.00004     0.00004
 PX  O  39   0.00001     0.00155    -0.00007     0.00005    -0.00005
 PY  O  39  -0.00000    -0.00006     0.00001    -0.00001     0.00001
 PZ  O  39  -0.00001    -0.00112     0.00006    -0.00004     0.00005
  
  S  H  40   0.00001     0.00166    -0.00009     0.00007    -0.00006
  
  S  H  41   0.00002     0.00241    -0.00014     0.00011    -0.00010
  
  S  O  42  -0.00174    -0.00050    -0.00005     0.00004    -0.00011
 PX  O  42  -0.10249     0.00025    -0.00006     0.00004    -0.00013
 PY  O  42  -0.19035     0.00013    -0.00001     0.00001    -0.00001
 PZ  O  42   0.97623     0.00007     0.00000    -0.00001     0.00000
  
  S  H  43   0.00026     0.00067     0.00009    -0.00008     0.00014
  
  S  H  44   0.00023     0.00057     0.00015    -0.00012     0.00045
  
  S  O  45  -0.00011    -0.00071    -0.00008     0.00008     0.00006
 PX  O  45   0.00004     0.00021     0.00004     0.00001    -0.00019
 PY  O  45  -0.00027    -0.00175    -0.00016     0.00016    -0.00004
 PZ  O  45  -0.00003    -0.00018     0.00001    -0.00005    -0.00002
  
  S  H  46   0.00009     0.00070     0.00019    -0.00008    -0.00059
  
  S  H  47   0.00026     0.00193     0.00020    -0.00017    -0.00002
  
  S  O  48  -0.00002     0.00005     0.00102     0.00010    -0.00012
 PX  O  48   0.00001    -0.00003    -0.00086     0.00002     0.00025
 PY  O  48  -0.00004     0.00014     0.00089     0.00052    -0.00057
 PZ  O  48   0.00001    -0.00003    -0.00157     0.00009     0.00003
  
  S  H  49   0.00002    -0.00007    -0.00368     0.00033    -0.00023
  
  S  H  50   0.00006    -0.00015    -0.00344    -0.00032     0.00072
  
  S  O  51  -0.00199    -0.01136    -0.00018     0.00014    -0.00019
 PX  O  51  -0.00314    -0.00245    -0.00008     0.00007    -0.00009
 PY  O  51  -0.00284    -0.01127    -0.00019     0.00015    -0.00023
 PZ  O  51  -0.00306     0.01839     0.00026    -0.00022     0.00028
  
  S  H  52  -0.00124     0.05099     0.00062    -0.00044     0.00059
  
  S  H  53   0.01128     0.00710     0.00026    -0.00021     0.00033
  
  S  O  54   0.00002    -0.00053     0.00002    -0.00001     0.00001
 PX  O  54  -0.00001     0.00087    -0.00004     0.00003    -0.00003
 PY  O  54  -0.00001     0.00044    -0.00001     0.00001    -0.00001
 PZ  O  54  -0.00002     0.00078    -0.00002     0.00002    -0.00002
  
  S  H  55  -0.00006     0.00129    -0.00007     0.00005    -0.00005
  
  S  H  56  -0.00003     0.00060    -0.00001     0.00001    -0.00001
  
  S  H  57   0.00000     0.05441     0.00060    -0.00042     0.00043
  
  S  H  58  -0.00021    -0.00132     0.00342    -0.00134     0.00174

          BONDING CONTRIBUTION OF EACH M.O.

  1.8158  1.6304  1.7076  1.9295  1.6479  1.7245  0.0260  1.8772  1.6798  1.6999
  1.7208  1.7527  1.7071  0.0001  0.0000  1.7038  1.6279  1.7424  1.7475  1.7380
  1.6380  1.9985  1.6683  1.6311  1.6679  0.0009  1.6957  0.0000  1.6834  1.9917
  1.7080  1.9976  1.9990  0.0012  0.0002  1.6272  0.0452  0.0174  1.8960  1.6241
  1.6707  1.9941  0.0020  1.6241  0.0000  1.9888  0.0142  1.9958  0.0315  1.9960
  1.9423  1.9311  1.9670  1.9492  1.9490  1.9322  1.9585  1.9353  1.9673  0.9980
  0.0137  0.0000  0.0004  0.0000  1.0890  0.0002  0.0505  0.0000  0.0277  0.0700
  0.0021  0.0001  0.0015  0.2604  1.9589  1.9963  2.0232 -1.9851 -2.0182 -2.0384
 -1.9127 -2.0063 -1.7336 -1.6915 -1.7861 -1.7635 -1.9925 -1.8697 -1.7851 -1.7071
 -1.9275 -1.7154 -1.7146 -1.8879 -1.7185 -1.7101 -1.9660 -1.9544 -1.8937 -1.9324
 -1.8893 -1.8750 -1.8951 -1.9140 -1.8510 -1.9128 -1.8264 -1.8038 -1.8500 -1.8108
 -1.9717 -1.7167 -1.9494 -1.9298 -1.9544 -1.7613 -1.7944 -1.8852 -1.8998 -1.7111
 -1.6628 -1.6972 -1.6908 -1.7155 -1.6839 -1.6908 -1.6584

           DATA FOR GRAPH WRITTEN TO DISK

 **********************
 *                    *
 * JOB ENDED NORMALLY *
 *                    *
 **********************



 TOTAL JOB TIME:             0.57 SECONDS

 == MOPAC DONE ==
