 *******************************************************************************
 ** Site#: 34139        For non-commercial use only    Version 20.015L 64BITS **
 *******************************************************************************
 ** Cite this program as: MOPAC2016, Version: 20.015L, James J. P. Stewart,   **
 ** Stewart Computational Chemistry, web: HTTP://OpenMOPAC.net. Days left: 249**
 *******************************************************************************
 **                                                                           **
 **                                MOPAC2016                                  **
 **                                                                           **
 *******************************************************************************

                              PM7 CALCULATION RESULTS

 *******************************************************************************
 *  CALCULATION DONE:                                Mon May 11 10:19:32 2020  *
 *  PM7        - The PM7 Hamiltonian to be used
 *  QMMM       - Generate energies and gradients for use in MM codes
 *  DIPOLE     - PRINT DIPOLE INSTEAD OF ENERGY IN TRAJECTORIES
 *  GEO-OK     - OVERRIDE INTERATOMIC DISTANCE AND OTHER SAFETY CHECKS
 *
 *
 *
 *                 CHARGE ON SYSTEM = 0
 *
 *
 *
 *  LET        - OVERRIDE SOME SAFETY CHECKS
 *  XYZ        - CARTESIAN COORDINATE SYSTEM TO BE USED
 *  FORCE      - FORCE CALCULATION SPECIFIED
 *  1SCF       - DO 1 SCF AND THEN STOP 
 *  T=         - A TIME OF      2.0 MINUTES REQUESTED
 *  DUMP=N     - RESTART FILE WRITTEN EVERY  7200.000 SECONDS
 *  CUTOFF=    - CUTOFF FOR NDDO AND DIPOLE INTERACTIONS =  9.00A
 *  AUX        - OUTPUT AUXILIARY INFORMATION
 *  GRADIENTS  - ALL GRADIENTS TO BE PRINTED
 *  VECTORS    - FINAL EIGENVECTORS TO BE PRINTED
 *  EIGEN      - CONVERT LMO's INTO EIGENVECTORS
 *  LARGE      - EXPANDED OUTPUT TO BE PRINTED
 *  AIGOUT     - IN ARC FILE, INCLUDE AB-INITIO GEOMETRY
 *  GRAPH      - GENERATE FILE FOR GRAPHICS
 *  ALLVEC     - PRINT ALL EIGENVECTORS
 *  LOCALIZE   - LOCALIZED ORBITALS TO BE PRINTED
 *  PI         - BONDS MATRIX, SPLIT INTO SIGMA-PI-DELL COMPONENTS, TO BE PRINTED
 *******************************************************************************
PM7 XYZ T=2M 1SCF LOCALIZE AIGOUT GRAPH GRAPHF LARGE DIPOLE PI FORCE CUTOFF=9.0 AUX LET GRAD QMMM GEO-OK EIGEN VECTORS ALLVEC CHARGE=0
 Test System

   ATOM   CHEMICAL          X               Y               Z
  NUMBER   SYMBOL      (ANGSTROMS)     (ANGSTROMS)     (ANGSTROMS)
 
     1       C        -11.41539900  *  -0.18355000  *  -0.38704100  *
     2       O        -12.49161000  *  -0.77444400  *  -0.14817000  *
     3       N        -10.27390500  *  -0.88112900  *  -0.46235400  *
     4       H         -9.42160800  *  -0.42536000  *  -0.81736400  *
     5       C        -10.10403600  *  -2.35316700  *  -0.23965200  *
     6       H        -10.72788700  *  -2.61753900  *   0.65841900  *
     7       C        -10.48147100  *  -3.17183100  *  -1.50238900  *
     8       H         -9.63569100  *  -2.95512500  *  -2.26559100  *
     9       H        -10.41728400  *  -4.24937300  *  -1.29953600  *
    10       C        -11.84392900  *  -2.88264300  *  -2.15976700  *
    11       C        -12.86333600  *  -3.83924100  *  -2.05237500  *
    12       H        -12.65446900  *  -4.72265100  *  -1.44311000  *
    13       C        -14.08094500  *  -3.66950700  *  -2.60559400  *
    14       H        -14.79609100  *  -4.55172300  *  -2.56313700  *
    15       C        -14.37129200  *  -2.46198700  *  -3.20228900  *
    16       H        -15.38445600  *  -2.19973500  *  -3.62745300  *
    17       C        -12.07372100  *  -1.70922700  *  -2.88811200  *
    18       H        -11.17083000  *  -1.07642500  *  -2.96663600  *
    19       C        -13.38272900  *  -1.42370000  *  -3.28808000  *
    20       H        -13.64482700  *  -0.45477900  *  -3.62283300  *
    21       O         -9.39998900  *   3.08336300  *  -3.37100600  *
    22       H         -8.69181800  *   3.54209000  *  -3.82250200  *
    23       H         -8.93922300  *   2.40207600  *  -2.78763100  *
    24       O         -5.10862500  *   0.49850500  *  -0.86269500  *
    25       H         -4.19982400  *   0.49309800  *  -1.08557800  *
    26       H         -5.25552800  *   0.01029000  *   0.06624800  *
    27       O         -5.29732700  *   4.56571600  *  -2.50650500  *
    28       H         -5.48234000  *   3.95616000  *  -1.70905800  *
    29       H         -4.46121000  *   4.08810600  *  -2.73696000  *
    30       O         -8.88647600  *  -1.23559800  *  -3.47429200  *
    31       H         -8.24036700  *  -0.58176400  *  -3.23778900  *
    32       H         -8.41628300  *  -2.14863500  *  -3.52029200  *
    33       O        -10.54389400  *   0.95652700  *  -6.68970100  *
    34       H        -10.46662500  *  -0.08188900  *  -6.58770300  *
    35       H         -9.55078200  *   1.13980800  *  -6.55971600  *
    36       O         -6.26059200  *   1.89011100  *  -4.65421600  *
    37       H         -6.24266500  *   1.18797200  *  -3.96632300  *
    38       H         -5.30351100  *   1.90506200  *  -4.90429900  *
    39       O        -11.74034400  *   1.11234900  *   2.37554800  *
    40       H        -10.88487900  *   0.62985500  *   2.09676500  *
    41       H        -11.48208300  *   1.10808800  *   3.34654200  *
    42       O         -9.49767800  *   0.25681300  *   1.52721800  *
    43       H         -9.45690300  *  -0.75810500  *   1.78970300  *
    44       H         -8.70992700  *   0.63035200  *   2.02911100  *
    45       O         -6.42326200  *  -0.10352300  *  -3.06957500  *
    46       H         -5.96750600  *   0.01860500  *  -2.17171300  *
    47       H         -5.97642500  *  -0.92399000  *  -3.23070000  *
    48       O         -8.64076700  *   1.13438900  *  -1.62661600  *
    49       H         -7.82651500  *   0.60880800  *  -1.93120800  *
    50       H         -8.34185100  *   1.64344500  *  -0.82812100  *
    51       O        -10.03945900  *  -1.53805000  *  -5.90675500  *
    52       H         -9.30305500  *  -1.88719000  *  -6.38222900  *
    53       H         -9.62995100  *  -1.26599100  *  -5.08152500  *
    54       O         -7.18273800  *   4.36417900  *  -4.22006600  *
    55       H         -6.55726400  *   4.51871700  *  -3.42547000  *
    56       H         -7.01010500  *   3.43724100  *  -4.53551400  *
    57       O         -7.97496800  *   1.06632700  *  -6.25802900  *
    58       H         -7.47198500  *   1.60003700  *  -5.66474300  *
    59       H         -7.25762400  *   0.30220600  *  -6.48916200  *
    60       O         -8.47579700  *  -7.74820300  *   0.79425400  *
    61       H         -8.91484600  *  -7.27537100  *   0.01575000  *
    62       H         -7.75256600  *  -6.96225300  *   1.11298000  *
    63       O         -8.19954700  *   2.80889600  *   0.54578700  *
    64       H         -8.05327200  *   2.20794600  *   1.36917200  *
    65       H         -7.27627500  *   2.86175100  *   0.26664700  *
    66       O         -5.65041700  *   3.04224800  *  -0.30833600  *
    67       H         -4.89835900  *   3.15819700  *   0.32771000  *
    68       H         -5.44257900  *   2.07999800  *  -0.56640000  *
    69       O        -11.41679900  *   2.74988000  *  -5.12501700  *
    70       H        -10.66526700  *   2.89487900  *  -4.48902200  *
    71       H        -11.24298400  *   1.95745500  *  -5.55298000  *
    72       H        -11.42933300  *   0.88103400  *  -0.62063600  *
    73       H         -9.05113000  *  -2.53285100  *  -0.02238700  *
 


          CARTESIAN COORDINATES 

    NO.       ATOM           X           Y           Z

     1         C        -11.4154     -0.1835     -0.3870
     2         O        -12.4916     -0.7744     -0.1482
     3         N        -10.2739     -0.8811     -0.4624
     4         H         -9.4216     -0.4254     -0.8174
     5         C        -10.1040     -2.3532     -0.2397
     6         H        -10.7279     -2.6175      0.6584
     7         C        -10.4815     -3.1718     -1.5024
     8         H         -9.6357     -2.9551     -2.2656
     9         H        -10.4173     -4.2494     -1.2995
    10         C        -11.8439     -2.8826     -2.1598
    11         C        -12.8633     -3.8392     -2.0524
    12         H        -12.6545     -4.7227     -1.4431
    13         C        -14.0809     -3.6695     -2.6056
    14         H        -14.7961     -4.5517     -2.5631
    15         C        -14.3713     -2.4620     -3.2023
    16         H        -15.3845     -2.1997     -3.6275
    17         C        -12.0737     -1.7092     -2.8881
    18         H        -11.1708     -1.0764     -2.9666
    19         C        -13.3827     -1.4237     -3.2881
    20         H        -13.6448     -0.4548     -3.6228
    21         O         -9.4000      3.0834     -3.3710
    22         H         -8.6918      3.5421     -3.8225
    23         H         -8.9392      2.4021     -2.7876
    24         O         -5.1086      0.4985     -0.8627
    25         H         -4.1998      0.4931     -1.0856
    26         H         -5.2555      0.0103      0.0662
    27         O         -5.2973      4.5657     -2.5065
    28         H         -5.4823      3.9562     -1.7091
    29         H         -4.4612      4.0881     -2.7370
    30         O         -8.8865     -1.2356     -3.4743
    31         H         -8.2404     -0.5818     -3.2378
    32         H         -8.4163     -2.1486     -3.5203
    33         O        -10.5439      0.9565     -6.6897
    34         H        -10.4666     -0.0819     -6.5877
    35         H         -9.5508      1.1398     -6.5597
    36         O         -6.2606      1.8901     -4.6542
    37         H         -6.2427      1.1880     -3.9663
    38         H         -5.3035      1.9051     -4.9043
    39         O        -11.7403      1.1123      2.3755
    40         H        -10.8849      0.6299      2.0968
    41         H        -11.4821      1.1081      3.3465
    42         O         -9.4977      0.2568      1.5272
    43         H         -9.4569     -0.7581      1.7897
    44         H         -8.7099      0.6304      2.0291
    45         O         -6.4233     -0.1035     -3.0696
    46         H         -5.9675      0.0186     -2.1717
    47         H         -5.9764     -0.9240     -3.2307
    48         O         -8.6408      1.1344     -1.6266
    49         H         -7.8265      0.6088     -1.9312
    50         H         -8.3419      1.6434     -0.8281
    51         O        -10.0395     -1.5381     -5.9068
    52         H         -9.3031     -1.8872     -6.3822
    53         H         -9.6300     -1.2660     -5.0815
    54         O         -7.1827      4.3642     -4.2201
    55         H         -6.5573      4.5187     -3.4255
    56         H         -7.0101      3.4372     -4.5355
    57         O         -7.9750      1.0663     -6.2580
    58         H         -7.4720      1.6000     -5.6647
    59         H         -7.2576      0.3022     -6.4892
    60         O         -8.4758     -7.7482      0.7943
    61         H         -8.9148     -7.2754      0.0158
    62         H         -7.7526     -6.9623      1.1130
    63         O         -8.1995      2.8089      0.5458
    64         H         -8.0533      2.2079      1.3692
    65         H         -7.2763      2.8618      0.2666
    66         O         -5.6504      3.0422     -0.3083
    67         H         -4.8984      3.1582      0.3277
    68         H         -5.4426      2.0800     -0.5664
    69         O        -11.4168      2.7499     -5.1250
    70         H        -10.6653      2.8949     -4.4890
    71         H        -11.2430      1.9575     -5.5530
    72         H        -11.4293      0.8810     -0.6206
    73         H         -9.0511     -2.5329     -0.0224

 General Reference for PM7:
 "Optimization of Parameters for Semiempirical Methods VI: More Modifications to the 
 NDDO Approximations and Re-optimization of Parameters", J. J. P. Stewart, J. Mol. Mod., 1:32, 19 (2013)
 http://www.springerlink.com/openurl.asp?genre=article&id=doi:10.1007/s00894-012-1667-x

           Empirical Formula: C9 H45 N O18  =    73 atoms



      MOLECULAR POINT GROUP   :   C1  


      RHF CALCULATION, NO. OF DOUBLY OCCUPIED LEVELS = 97

