 *******************************************************************************
 ** Site#: 34139        For non-commercial use only    Version 20.015L 64BITS **
 *******************************************************************************
 ** Cite this program as: MOPAC2016, Version: 20.015L, James J. P. Stewart,   **
 ** Stewart Computational Chemistry, web: HTTP://OpenMOPAC.net. Days left: 276**
 *******************************************************************************
 **                                                                           **
 **                                MOPAC2016                                  **
 **                                                                           **
 *******************************************************************************

                              PM7 CALCULATION RESULTS

 *******************************************************************************
 *  CALCULATION DONE:                                Tue Apr 14 14:51:39 2020  *
 *  PM7        - The PM7 Hamiltonian to be used
 *  QMMM       - Generate energies and gradients for use in MM codes
 *  DIPOLE     - PRINT DIPOLE INSTEAD OF ENERGY IN TRAJECTORIES
 *  GEO-OK     - OVERRIDE INTERATOMIC DISTANCE AND OTHER SAFETY CHECKS
 *
 *
 *
 *                 CHARGE ON SYSTEM = 0
 *
 *
 *
 *  LET        - OVERRIDE SOME SAFETY CHECKS
 *  XYZ        - CARTESIAN COORDINATE SYSTEM TO BE USED
 *  FORCE      - FORCE CALCULATION SPECIFIED
 *  1SCF       - DO 1 SCF AND THEN STOP 
 *  T=         - A TIME OF      2.0 MINUTES REQUESTED
 *  DUMP=N     - RESTART FILE WRITTEN EVERY  7200.000 SECONDS
 *  CUTOFF=    - CUTOFF FOR NDDO AND DIPOLE INTERACTIONS =  9.00A
 *  AUX        - OUTPUT AUXILIARY INFORMATION
 *  GRADIENTS  - ALL GRADIENTS TO BE PRINTED
 *  VECTORS    - FINAL EIGENVECTORS TO BE PRINTED
 *  EIGEN      - CONVERT LMO's INTO EIGENVECTORS
 *  LARGE      - EXPANDED OUTPUT TO BE PRINTED
 *  AIGOUT     - IN ARC FILE, INCLUDE AB-INITIO GEOMETRY
 *  GRAPH      - GENERATE FILE FOR GRAPHICS
 *  ALLVEC     - PRINT ALL EIGENVECTORS
 *  LOCALIZE   - LOCALIZED ORBITALS TO BE PRINTED
 *  PI         - BONDS MATRIX, SPLIT INTO SIGMA-PI-DELL COMPONENTS, TO BE PRINTED
 *******************************************************************************
PM7 XYZ T=2M 1SCF LOCALIZE AIGOUT GRAPH GRAPHF LARGE DIPOLE PI FORCE CUTOFF=9.0 AUX LET GRAD QMMM GEO-OK EIGEN VECTORS ALLVEC CHARGE=0
 Test System

   ATOM   CHEMICAL          X               Y               Z
  NUMBER   SYMBOL      (ANGSTROMS)     (ANGSTROMS)     (ANGSTROMS)
 
     1       C        -10.70529200  *   0.72239600  *   0.67234500  *
     2       O        -10.89502100  *  -0.14686200  *   1.38747400  *
     3       N         -9.44347100  *   0.99225000  *   0.08041000  *
     4       H         -9.31205500  *   1.73896800  *  -0.58540600  *
     5       C         -8.26802000  *   0.16453700  *   0.38754600  *
     6       H         -8.24871500  *  -0.08734300  *   1.47775200  *
     7       C         -8.25789500  *  -1.16421300  *  -0.42206300  *
     8       H         -7.26298300  *  -1.65986300  *  -0.31490300  *
     9       H         -8.97865200  *  -1.87459300  *   0.06619000  *
    10       C         -8.57547600  *  -1.02356900  *  -1.88033500  *
    11       C         -9.78626000  *  -1.55664200  *  -2.36462800  *
    12       H        -10.48246200  *  -2.06746300  *  -1.70446500  *
    13       C        -10.10845900  *  -1.44003500  *  -3.72142300  *
    14       H        -11.04767800  *  -1.85170000  *  -4.08382000  *
    15       C         -9.22657800  *  -0.79721100  *  -4.58813100  *
    16       H         -9.49352200  *  -0.70178800  *  -5.65618300  *
    17       C         -7.70017100  *  -0.41419400  *  -2.77916300  *
    18       H         -6.71974000  *  -0.03842300  *  -2.44736700  *
    19       C         -8.02370200  *  -0.30738400  *  -4.11430100  *
    20       H         -7.31462500  *   0.15460300  *  -4.83652000  *
    21       O         -9.93312800  *   1.88418400  *  -2.63523300  *
    22       H         -9.54377600  *   1.22351300  *  -3.23000500  *
    23       H         -9.82462000  *   2.74033700  *  -3.12380300  *
    24       O         -7.47504300  *  -3.30884900  *  -5.07346400  *
    25       H         -7.65599300  *  -2.64055400  *  -4.39391500  *
    26       H         -8.28908800  *  -3.86556200  *  -5.09473600  *
    27       O        -10.49271500  *   2.12104400  *  -5.63378100  *
    28       H         -9.95689200  *   1.52014400  *  -6.15260700  *
    29       H        -10.02530200  *   2.97994400  *  -5.69047000  *
    30       O        -12.83215100  *  -3.93565800  *  -4.82704500  *
    31       H        -13.10322100  *  -4.84873500  *  -4.99634400  *
    32       H        -13.12612600  *  -3.76478900  *  -3.91411200  *
    33       O        -10.87133100  *  -2.50147700  *  -6.40260400  *
    34       H        -11.07076800  *  -3.23089700  *  -5.80030900  *
    35       H        -10.19115400  *  -2.84216500  *  -7.02606500  *
    36       O         -5.22860000  *   0.29419300  *  -7.52323400  *
    37       H         -5.90115000  *  -0.31127500  *  -7.11462200  *
    38       H         -5.63650400  *   1.19594500  *  -7.50732500  *
    39       O        -13.39212500  *  -1.95372300  *   0.97255600  *
    40       H        -13.23064400  *  -2.93538400  *   0.93225700  *
    41       H        -12.57120400  *  -1.63172300  *   1.39686300  *
    42       O        -10.68443700  *  -2.06118800  *   3.25999900  *
    43       H        -11.47209500  *  -1.94551300  *   3.85830900  *
    44       H        -10.55698200  *  -1.19025300  *   2.88442400  *
    45       O         -7.14455900  *  -1.50865000  *  -7.03896200  *
    46       H         -6.95035000  *  -2.06688400  *  -7.83086900  *
    47       H         -7.33757100  *  -2.11620700  *  -6.30255300  *
    48       O        -10.08788500  *   4.01304800  *  -1.09124400  *
    49       H        -10.16734300  *   4.27980200  *  -2.05376300  *
    50       H         -9.24669800  *   4.41776100  *  -0.83323500  *
    51       O        -13.09131500  *  -1.00263700  *  -6.55967600  *
    52       H        -12.67023800  *  -0.29937100  *  -7.09054100  *
    53       H        -12.31196200  *  -1.57625900  *  -6.37664600  *
    54       O         -8.79423000  *   0.45676000  *  -7.61247700  *
    55       H         -8.27321500  *   0.92627900  *  -8.32276800  *
    56       H         -8.27679300  *  -0.34371500  *  -7.37961800  *
    57       O        -11.26021300  *   0.41278000  *  -8.50731300  *
    58       H        -10.36308700  *   0.47857500  *  -8.06262200  *
    59       H        -11.08840700  *  -0.39141200  *  -9.00530500  *
    60       O         -8.55624600  *  -4.41241400  *  -0.24422300  *
    61       H         -9.01423900  *  -4.93584800  *  -0.97261700  *
    62       H         -7.68157600  *  -4.27069000  *  -0.62036300  *
    63       O         -8.08083200  *   4.76853300  *   0.98060000  *
    64       H         -7.77073800  *   3.92964500  *   0.61666800  *
    65       H         -7.21954600  *   5.24558300  *   1.25507400  *
    66       O         -7.46465900  *   3.71326100  *  -2.91441400  *
    67       H         -7.47862100  *   2.84791900  *  -2.48936800  *
    68       H         -6.92958600  *   3.57803700  *  -3.75648000  *
    69       O        -12.61323600  *   1.05550600  *  -4.36830000  *
    70       H        -11.78547200  *   1.46195200  *  -4.75886500  *
    71       H        -12.69450000  *   0.22866900  *  -4.85543600  *
    72       H        -11.47211700  *   1.43808000  *   0.37590800  *
    73       H         -7.38685500  *   0.77256200  *   0.18271600  *
 


          CARTESIAN COORDINATES 

    NO.       ATOM           X           Y           Z

     1         C        -10.7053      0.7224      0.6723
     2         O        -10.8950     -0.1469      1.3875
     3         N         -9.4435      0.9922      0.0804
     4         H         -9.3121      1.7390     -0.5854
     5         C         -8.2680      0.1645      0.3875
     6         H         -8.2487     -0.0873      1.4778
     7         C         -8.2579     -1.1642     -0.4221
     8         H         -7.2630     -1.6599     -0.3149
     9         H         -8.9787     -1.8746      0.0662
    10         C         -8.5755     -1.0236     -1.8803
    11         C         -9.7863     -1.5566     -2.3646
    12         H        -10.4825     -2.0675     -1.7045
    13         C        -10.1085     -1.4400     -3.7214
    14         H        -11.0477     -1.8517     -4.0838
    15         C         -9.2266     -0.7972     -4.5881
    16         H         -9.4935     -0.7018     -5.6562
    17         C         -7.7002     -0.4142     -2.7792
    18         H         -6.7197     -0.0384     -2.4474
    19         C         -8.0237     -0.3074     -4.1143
    20         H         -7.3146      0.1546     -4.8365
    21         O         -9.9331      1.8842     -2.6352
    22         H         -9.5438      1.2235     -3.2300
    23         H         -9.8246      2.7403     -3.1238
    24         O         -7.4750     -3.3088     -5.0735
    25         H         -7.6560     -2.6406     -4.3939
    26         H         -8.2891     -3.8656     -5.0947
    27         O        -10.4927      2.1210     -5.6338
    28         H         -9.9569      1.5201     -6.1526
    29         H        -10.0253      2.9799     -5.6905
    30         O        -12.8322     -3.9357     -4.8270
    31         H        -13.1032     -4.8487     -4.9963
    32         H        -13.1261     -3.7648     -3.9141
    33         O        -10.8713     -2.5015     -6.4026
    34         H        -11.0708     -3.2309     -5.8003
    35         H        -10.1912     -2.8422     -7.0261
    36         O         -5.2286      0.2942     -7.5232
    37         H         -5.9012     -0.3113     -7.1146
    38         H         -5.6365      1.1959     -7.5073
    39         O        -13.3921     -1.9537      0.9726
    40         H        -13.2306     -2.9354      0.9323
    41         H        -12.5712     -1.6317      1.3969
    42         O        -10.6844     -2.0612      3.2600
    43         H        -11.4721     -1.9455      3.8583
    44         H        -10.5570     -1.1903      2.8844
    45         O         -7.1446     -1.5087     -7.0390
    46         H         -6.9504     -2.0669     -7.8309
    47         H         -7.3376     -2.1162     -6.3026
    48         O        -10.0879      4.0130     -1.0912
    49         H        -10.1673      4.2798     -2.0538
    50         H         -9.2467      4.4178     -0.8332
    51         O        -13.0913     -1.0026     -6.5597
    52         H        -12.6702     -0.2994     -7.0905
    53         H        -12.3120     -1.5763     -6.3766
    54         O         -8.7942      0.4568     -7.6125
    55         H         -8.2732      0.9263     -8.3228
    56         H         -8.2768     -0.3437     -7.3796
    57         O        -11.2602      0.4128     -8.5073
    58         H        -10.3631      0.4786     -8.0626
    59         H        -11.0884     -0.3914     -9.0053
    60         O         -8.5562     -4.4124     -0.2442
    61         H         -9.0142     -4.9358     -0.9726
    62         H         -7.6816     -4.2707     -0.6204
    63         O         -8.0808      4.7685      0.9806
    64         H         -7.7707      3.9296      0.6167
    65         H         -7.2195      5.2456      1.2551
    66         O         -7.4647      3.7133     -2.9144
    67         H         -7.4786      2.8479     -2.4894
    68         H         -6.9296      3.5780     -3.7565
    69         O        -12.6132      1.0555     -4.3683
    70         H        -11.7855      1.4620     -4.7589
    71         H        -12.6945      0.2287     -4.8554
    72         H        -11.4721      1.4381      0.3759
    73         H         -7.3869      0.7726      0.1827

 General Reference for PM7:
 "Optimization of Parameters for Semiempirical Methods VI: More Modifications to the 
 NDDO Approximations and Re-optimization of Parameters", J. J. P. Stewart, J. Mol. Mod., 1:32, 19 (2013)
 http://www.springerlink.com/openurl.asp?genre=article&id=doi:10.1007/s00894-012-1667-x

           Empirical Formula: C9 H45 N O18  =    73 atoms



      MOLECULAR POINT GROUP   :   C1  


      RHF CALCULATION, NO. OF DOUBLY OCCUPIED LEVELS = 97


 -------------------------------------------------------------------------------
 PM7 XYZ T=2M 1SCF LOCALIZE AIGOUT GRAPH GRAPHF LARGE DIPOLE PI FORCE CUTOFF=9.0 AUX LET GRAD QMMM GEO-OK EIGEN VECTORS ALLVEC CHARGE=0
 Test System



     1SCF WAS SPECIFIED, SO BFGS WAS NOT USED                 
     SCF FIELD WAS ACHIEVED                                   


                              PM7 CALCULATION
                                                       MOPAC2016 (Version: 20.015L)
                                                       Tue Apr 14 14:51:39 2020
                                                       No. of days remaining = 276




          FINAL HEAT OF FORMATION =      -1318.18666 KCAL/MOL =   -5515.29300 KJ/MOL


          TOTAL ENERGY            =      -7231.47320 EV
          ELECTRONIC ENERGY       =     -59864.88613 EV  POINT GROUP:     C1  
          CORE-CORE REPULSION     =      52633.41293 EV
          COSMO AREA              =        496.81 SQUARE ANGSTROMS
          COSMO VOLUME            =        655.56 CUBIC ANGSTROMS

          GRADIENT NORM           =        318.06662 = 37.22688 PER ATOM
          IONIZATION POTENTIAL    =          9.463335 EV
          HOMO LUMO ENERGIES (EV) =         -9.463 -0.405
          NO. OF FILLED LEVELS    =         97
          MOLECULAR WEIGHT        =        455.4504

          MOLECULAR DIMENSIONS (Angstroms)

            Atom       Atom       Distance
            H    65    H    31    13.25116
            H    43    H    38    13.15134
            O    69    H    62     7.83053


          SCF CALCULATIONS        =          1
 
          WALL-CLOCK TIME         =          0.262 SECONDS
          COMPUTATION TIME        =          0.226 SECONDS

          LARGEST ATOMIC GRADIENTS

          Atom     Label                     Cartesian Gradients           Cartesian Coordinates       |Gradient|
                                           X          Y          Z        X          Y          Z

             1       C                 -69.243   -136.405    134.082  -10.70529    0.72240    0.67235    203.418
             2       O                  23.232    125.290   -110.204  -10.89502   -0.14686    1.38747    168.470
            63       O                 -47.106     -5.525     -2.521   -8.08083    4.76853    0.98060     47.496
             3       N                  16.443     13.290    -33.536   -9.44347    0.99225    0.08041     39.644
            60       O                   3.007     14.246     32.813   -8.55625   -4.41241   -0.24422     35.898
            65       H                  33.003      9.784      6.577   -7.21955    5.24558    1.25507     35.046
            39       O                 -18.449     28.141     -9.264  -13.39213   -1.95372    0.97256     34.902
            21       O                 -24.611    -13.657     17.345   -9.93313    1.88418   -2.63523     33.061
            48       O                 -13.676    -13.251     26.776  -10.08788    4.01305   -1.09124     32.857
            36       O                  25.525    -16.572    -12.200   -5.22860    0.29419   -7.52323     32.787



       FINAL  POINT  AND  DERIVATIVES

   PARAMETER     ATOM    TYPE            VALUE        GRADIENT
      1          1  C    CARTESIAN X   -10.705292    -69.242699  KCAL/ANGSTROM
      2          1  C    CARTESIAN Y     0.722396   -136.405447  KCAL/ANGSTROM
      3          1  C    CARTESIAN Z     0.672345    134.082082  KCAL/ANGSTROM
      4          2  O    CARTESIAN X   -10.895021     23.231704  KCAL/ANGSTROM
      5          2  O    CARTESIAN Y    -0.146862    125.290271  KCAL/ANGSTROM
      6          2  O    CARTESIAN Z     1.387474   -110.203924  KCAL/ANGSTROM
      7          3  N    CARTESIAN X    -9.443471     16.442982  KCAL/ANGSTROM
      8          3  N    CARTESIAN Y     0.992250     13.289633  KCAL/ANGSTROM
      9          3  N    CARTESIAN Z     0.080410    -33.535560  KCAL/ANGSTROM
     10          4  H    CARTESIAN X    -9.312055     21.974782  KCAL/ANGSTROM
     11          4  H    CARTESIAN Y     1.738968     -0.961813  KCAL/ANGSTROM
     12          4  H    CARTESIAN Z    -0.585406      3.878124  KCAL/ANGSTROM
     13          5  C    CARTESIAN X    -8.268020     16.629269  KCAL/ANGSTROM
     14          5  C    CARTESIAN Y     0.164537     11.709245  KCAL/ANGSTROM
     15          5  C    CARTESIAN Z     0.387546      5.929951  KCAL/ANGSTROM
     16          6  H    CARTESIAN X    -8.248715      4.223587  KCAL/ANGSTROM
     17          6  H    CARTESIAN Y    -0.087343      1.031673  KCAL/ANGSTROM
     18          6  H    CARTESIAN Z     1.477752      0.483557  KCAL/ANGSTROM
     19          7  C    CARTESIAN X    -8.257895     -4.348349  KCAL/ANGSTROM
     20          7  C    CARTESIAN Y    -1.164213      0.810627  KCAL/ANGSTROM
     21          7  C    CARTESIAN Z    -0.422063      0.194828  KCAL/ANGSTROM
     22          8  H    CARTESIAN X    -7.262983      3.764841  KCAL/ANGSTROM
     23          8  H    CARTESIAN Y    -1.659863     -2.315941  KCAL/ANGSTROM
     24          8  H    CARTESIAN Z    -0.314903     -2.528111  KCAL/ANGSTROM
     25          9  H    CARTESIAN X    -8.978652     -1.485273  KCAL/ANGSTROM
     26          9  H    CARTESIAN Y    -1.874593     -2.698193  KCAL/ANGSTROM
     27          9  H    CARTESIAN Z     0.066190      1.775204  KCAL/ANGSTROM
     28         10  C    CARTESIAN X    -8.575476     14.315316  KCAL/ANGSTROM
     29         10  C    CARTESIAN Y    -1.023569      3.819483  KCAL/ANGSTROM
     30         10  C    CARTESIAN Z    -1.880335     -7.334250  KCAL/ANGSTROM
     31         11  C    CARTESIAN X    -9.786260     -8.817262  KCAL/ANGSTROM
     32         11  C    CARTESIAN Y    -1.556642     -3.242345  KCAL/ANGSTROM
     33         11  C    CARTESIAN Z    -2.364628      9.742373  KCAL/ANGSTROM
     34         12  H    CARTESIAN X   -10.482462      0.655401  KCAL/ANGSTROM
     35         12  H    CARTESIAN Y    -2.067463     -2.518758  KCAL/ANGSTROM
     36         12  H    CARTESIAN Z    -1.704465     -3.646941  KCAL/ANGSTROM
     37         13  C    CARTESIAN X   -10.108459     -4.908356  KCAL/ANGSTROM
     38         13  C    CARTESIAN Y    -1.440035      1.476680  KCAL/ANGSTROM
     39         13  C    CARTESIAN Z    -3.721423    -11.013748  KCAL/ANGSTROM
     40         14  H    CARTESIAN X   -11.047678      2.148574  KCAL/ANGSTROM
     41         14  H    CARTESIAN Y    -1.851700     -2.841745  KCAL/ANGSTROM
     42         14  H    CARTESIAN Z    -4.083820      0.979643  KCAL/ANGSTROM
     43         15  C    CARTESIAN X    -9.226578     13.565513  KCAL/ANGSTROM
     44         15  C    CARTESIAN Y    -0.797211      7.838169  KCAL/ANGSTROM
     45         15  C    CARTESIAN Z    -4.588131     15.507043  KCAL/ANGSTROM
     46         16  H    CARTESIAN X    -9.493522      0.371086  KCAL/ANGSTROM
     47         16  H    CARTESIAN Y    -0.701788      0.060300  KCAL/ANGSTROM
     48         16  H    CARTESIAN Z    -5.656183     -9.049451  KCAL/ANGSTROM
     49         17  C    CARTESIAN X    -7.700171    -17.287794  KCAL/ANGSTROM
     50         17  C    CARTESIAN Y    -0.414194     -1.420687  KCAL/ANGSTROM
     51         17  C    CARTESIAN Z    -2.779163    -17.059329  KCAL/ANGSTROM
     52         18  H    CARTESIAN X    -6.719740      6.475662  KCAL/ANGSTROM
     53         18  H    CARTESIAN Y    -0.038423      1.988809  KCAL/ANGSTROM
     54         18  H    CARTESIAN Z    -2.447367     -2.849117  KCAL/ANGSTROM
     55         19  C    CARTESIAN X    -8.023702    -14.845440  KCAL/ANGSTROM
     56         19  C    CARTESIAN Y    -0.307384    -10.964107  KCAL/ANGSTROM
     57         19  C    CARTESIAN Z    -4.114301     24.142374  KCAL/ANGSTROM
     58         20  H    CARTESIAN X    -7.314625      6.929940  KCAL/ANGSTROM
     59         20  H    CARTESIAN Y     0.154603      4.061526  KCAL/ANGSTROM
     60         20  H    CARTESIAN Z    -4.836520     -8.787742  KCAL/ANGSTROM
     61         21  O    CARTESIAN X    -9.933128    -24.610569  KCAL/ANGSTROM
     62         21  O    CARTESIAN Y     1.884184    -13.656924  KCAL/ANGSTROM
     63         21  O    CARTESIAN Z    -2.635233     17.345067  KCAL/ANGSTROM
     64         22  H    CARTESIAN X    -9.543776     13.864710  KCAL/ANGSTROM
     65         22  H    CARTESIAN Y     1.223513     -1.178532  KCAL/ANGSTROM
     66         22  H    CARTESIAN Z    -3.230005     -5.040609  KCAL/ANGSTROM
     67         23  H    CARTESIAN X    -9.824620      8.457447  KCAL/ANGSTROM
     68         23  H    CARTESIAN Y     2.740337     16.984328  KCAL/ANGSTROM
     69         23  H    CARTESIAN Z    -3.123803    -12.023797  KCAL/ANGSTROM
     70         24  O    CARTESIAN X    -7.475043     17.282106  KCAL/ANGSTROM
     71         24  O    CARTESIAN Y    -3.308849      1.442285  KCAL/ANGSTROM
     72         24  O    CARTESIAN Z    -5.073464      3.623775  KCAL/ANGSTROM
     73         25  H    CARTESIAN X    -7.655993     -1.997375  KCAL/ANGSTROM
     74         25  H    CARTESIAN Y    -2.640554      0.567529  KCAL/ANGSTROM
     75         25  H    CARTESIAN Z    -4.393915     -2.857556  KCAL/ANGSTROM
     76         26  H    CARTESIAN X    -8.289088    -12.124873  KCAL/ANGSTROM
     77         26  H    CARTESIAN Y    -3.865562     -6.985567  KCAL/ANGSTROM
     78         26  H    CARTESIAN Z    -5.094736     -0.601137  KCAL/ANGSTROM
     79         27  O    CARTESIAN X   -10.492715    -22.165358  KCAL/ANGSTROM
     80         27  O    CARTESIAN Y     2.121044    -13.408539  KCAL/ANGSTROM
     81         27  O    CARTESIAN Z    -5.633781      4.650549  KCAL/ANGSTROM
     82         28  H    CARTESIAN X    -9.956892      5.248066  KCAL/ANGSTROM
     83         28  H    CARTESIAN Y     1.520144      5.793053  KCAL/ANGSTROM
     84         28  H    CARTESIAN Z    -6.152607      0.116372  KCAL/ANGSTROM
     85         29  H    CARTESIAN X   -10.025302     13.144046  KCAL/ANGSTROM
     86         29  H    CARTESIAN Y     2.979944      7.594857  KCAL/ANGSTROM
     87         29  H    CARTESIAN Z    -5.690470     -3.207613  KCAL/ANGSTROM
     88         30  O    CARTESIAN X   -12.832151     -4.429546  KCAL/ANGSTROM
     89         30  O    CARTESIAN Y    -3.935658     15.530946  KCAL/ANGSTROM
     90         30  O    CARTESIAN Z    -4.827045    -12.259731  KCAL/ANGSTROM
     91         31  H    CARTESIAN X   -13.103221      0.179550  KCAL/ANGSTROM
     92         31  H    CARTESIAN Y    -4.848735     -8.582549  KCAL/ANGSTROM
     93         31  H    CARTESIAN Z    -4.996344      2.773830  KCAL/ANGSTROM
     94         32  H    CARTESIAN X   -13.126126     -0.860046  KCAL/ANGSTROM
     95         32  H    CARTESIAN Y    -3.764789     -5.478375  KCAL/ANGSTROM
     96         32  H    CARTESIAN Z    -3.914112      8.679273  KCAL/ANGSTROM
     97         33  O    CARTESIAN X   -10.871331    -26.293267  KCAL/ANGSTROM
     98         33  O    CARTESIAN Y    -2.501477     14.850817  KCAL/ANGSTROM
     99         33  O    CARTESIAN Z    -6.402604      5.980977  KCAL/ANGSTROM
    100         34  H    CARTESIAN X   -11.070768     10.493898  KCAL/ANGSTROM
    101         34  H    CARTESIAN Y    -3.230897     -5.060392  KCAL/ANGSTROM
    102         34  H    CARTESIAN Z    -5.800309      1.624200  KCAL/ANGSTROM
    103         35  H    CARTESIAN X   -10.191154     16.550160  KCAL/ANGSTROM
    104         35  H    CARTESIAN Y    -2.842165     -7.736246  KCAL/ANGSTROM
    105         35  H    CARTESIAN Z    -7.026065     -7.923174  KCAL/ANGSTROM
    106         36  O    CARTESIAN X    -5.228600     25.524991  KCAL/ANGSTROM
    107         36  O    CARTESIAN Y     0.294193    -16.572290  KCAL/ANGSTROM
    108         36  O    CARTESIAN Z    -7.523234    -12.200095  KCAL/ANGSTROM
    109         37  H    CARTESIAN X    -5.901150    -14.631302  KCAL/ANGSTROM
    110         37  H    CARTESIAN Y    -0.311275     -3.924468  KCAL/ANGSTROM
    111         37  H    CARTESIAN Z    -7.114622     11.360327  KCAL/ANGSTROM
    112         38  H    CARTESIAN X    -5.636504    -13.567952  KCAL/ANGSTROM
    113         38  H    CARTESIAN Y     1.195945     20.120970  KCAL/ANGSTROM
    114         38  H    CARTESIAN Z    -7.507325      1.911379  KCAL/ANGSTROM
    115         39  O    CARTESIAN X   -13.392125    -18.449242  KCAL/ANGSTROM
    116         39  O    CARTESIAN Y    -1.953723     28.141368  KCAL/ANGSTROM
    117         39  O    CARTESIAN Z     0.972556     -9.263677  KCAL/ANGSTROM
    118         40  H    CARTESIAN X   -13.230644      7.870417  KCAL/ANGSTROM
    119         40  H    CARTESIAN Y    -2.935384    -21.773667  KCAL/ANGSTROM
    120         40  H    CARTESIAN Z     0.932257      1.618068  KCAL/ANGSTROM
    121         41  H    CARTESIAN X   -12.571204      8.730644  KCAL/ANGSTROM
    122         41  H    CARTESIAN Y    -1.631723     -6.389125  KCAL/ANGSTROM
    123         41  H    CARTESIAN Z     1.396863      8.112532  KCAL/ANGSTROM
    124         42  O    CARTESIAN X   -10.684437     20.894714  KCAL/ANGSTROM
    125         42  O    CARTESIAN Y    -2.061188     -7.745581  KCAL/ANGSTROM
    126         42  O    CARTESIAN Z     3.259999    -18.880196  KCAL/ANGSTROM
    127         43  H    CARTESIAN X   -11.472095    -17.134357  KCAL/ANGSTROM
    128         43  H    CARTESIAN Y    -1.945513      5.411172  KCAL/ANGSTROM
    129         43  H    CARTESIAN Z     3.858309     11.586126  KCAL/ANGSTROM
    130         44  H    CARTESIAN X   -10.556982     -3.331516  KCAL/ANGSTROM
    131         44  H    CARTESIAN Y    -1.190253      6.039109  KCAL/ANGSTROM
    132         44  H    CARTESIAN Z     2.884424      7.751416  KCAL/ANGSTROM
    133         45  O    CARTESIAN X    -7.144559      5.619464  KCAL/ANGSTROM
    134         45  O    CARTESIAN Y    -1.508650     11.226485  KCAL/ANGSTROM
    135         45  O    CARTESIAN Z    -7.038962     12.375470  KCAL/ANGSTROM
    136         46  H    CARTESIAN X    -6.950350     -1.038593  KCAL/ANGSTROM
    137         46  H    CARTESIAN Y    -2.066884     -7.219916  KCAL/ANGSTROM
    138         46  H    CARTESIAN Z    -7.830869    -13.532718  KCAL/ANGSTROM
    139         47  H    CARTESIAN X    -7.337571     -6.223086  KCAL/ANGSTROM
    140         47  H    CARTESIAN Y    -2.116207      4.118593  KCAL/ANGSTROM
    141         47  H    CARTESIAN Z    -6.302553     -2.268049  KCAL/ANGSTROM
    142         48  O    CARTESIAN X   -10.087885    -13.676172  KCAL/ANGSTROM
    143         48  O    CARTESIAN Y     4.013048    -13.250659  KCAL/ANGSTROM
    144         48  O    CARTESIAN Z    -1.091244     26.775726  KCAL/ANGSTROM
    145         49  H    CARTESIAN X   -10.167343      3.998934  KCAL/ANGSTROM
    146         49  H    CARTESIAN Y     4.279802      8.817721  KCAL/ANGSTROM
    147         49  H    CARTESIAN Z    -2.053763    -25.293950  KCAL/ANGSTROM
    148         50  H    CARTESIAN X    -9.246698      9.491163  KCAL/ANGSTROM
    149         50  H    CARTESIAN Y     4.417761      0.859664  KCAL/ANGSTROM
    150         50  H    CARTESIAN Z    -0.833235     -6.354166  KCAL/ANGSTROM
    151         51  O    CARTESIAN X   -13.091315    -22.103353  KCAL/ANGSTROM
    152         51  O    CARTESIAN Y    -1.002637     -3.514062  KCAL/ANGSTROM
    153         51  O    CARTESIAN Z    -6.559676      1.569565  KCAL/ANGSTROM
    154         52  H    CARTESIAN X   -12.670238      8.473540  KCAL/ANGSTROM
    155         52  H    CARTESIAN Y    -0.299371      2.419683  KCAL/ANGSTROM
    156         52  H    CARTESIAN Z    -7.090541     -0.819931  KCAL/ANGSTROM
    157         53  H    CARTESIAN X   -12.311962     14.964805  KCAL/ANGSTROM
    158         53  H    CARTESIAN Y    -1.576259     -0.888611  KCAL/ANGSTROM
    159         53  H    CARTESIAN Z    -6.376646      3.989588  KCAL/ANGSTROM
    160         54  O    CARTESIAN X    -8.794230    -18.007256  KCAL/ANGSTROM
    161         54  O    CARTESIAN Y     0.456760    -15.121620  KCAL/ANGSTROM
    162         54  O    CARTESIAN Z    -7.612477     13.288164  KCAL/ANGSTROM
    163         55  H    CARTESIAN X    -8.273215     13.089985  KCAL/ANGSTROM
    164         55  H    CARTESIAN Y     0.926279     11.336821  KCAL/ANGSTROM
    165         55  H    CARTESIAN Z    -8.322768    -15.302352  KCAL/ANGSTROM
    166         56  H    CARTESIAN X    -8.276793      1.779477  KCAL/ANGSTROM
    167         56  H    CARTESIAN Y    -0.343715     -3.780450  KCAL/ANGSTROM
    168         56  H    CARTESIAN Z    -7.379618     -0.374556  KCAL/ANGSTROM
    169         57  O    CARTESIAN X   -11.260213    -20.264318  KCAL/ANGSTROM
    170         57  O    CARTESIAN Y     0.412780     11.547661  KCAL/ANGSTROM
    171         57  O    CARTESIAN Z    -8.507313     -1.571488  KCAL/ANGSTROM
    172         58  H    CARTESIAN X   -10.363087     12.405262  KCAL/ANGSTROM
    173         58  H    CARTESIAN Y     0.478575     -6.518168  KCAL/ANGSTROM
    174         58  H    CARTESIAN Z    -8.062622      0.268114  KCAL/ANGSTROM
    175         59  H    CARTESIAN X   -11.088407     13.842188  KCAL/ANGSTROM
    176         59  H    CARTESIAN Y    -0.391412     -2.401804  KCAL/ANGSTROM
    177         59  H    CARTESIAN Z    -9.005305      3.357585  KCAL/ANGSTROM
    178         60  O    CARTESIAN X    -8.556246      3.007107  KCAL/ANGSTROM
    179         60  O    CARTESIAN Y    -4.412414     14.246184  KCAL/ANGSTROM
    180         60  O    CARTESIAN Z    -0.244223     32.812847  KCAL/ANGSTROM
    181         61  H    CARTESIAN X    -9.014239     -6.402612  KCAL/ANGSTROM
    182         61  H    CARTESIAN Y    -4.935848    -12.940572  KCAL/ANGSTROM
    183         61  H    CARTESIAN Z    -0.972617    -23.780279  KCAL/ANGSTROM
    184         62  H    CARTESIAN X    -7.681576      2.832883  KCAL/ANGSTROM
    185         62  H    CARTESIAN Y    -4.270690     -1.526629  KCAL/ANGSTROM
    186         62  H    CARTESIAN Z    -0.620363     -8.095772  KCAL/ANGSTROM
    187         63  O    CARTESIAN X    -8.080832    -47.105978  KCAL/ANGSTROM
    188         63  O    CARTESIAN Y     4.768533     -5.525129  KCAL/ANGSTROM
    189         63  O    CARTESIAN Z     0.980600     -2.521202  KCAL/ANGSTROM
    190         64  H    CARTESIAN X    -7.770738     12.228840  KCAL/ANGSTROM
    191         64  H    CARTESIAN Y     3.929645     -4.368325  KCAL/ANGSTROM
    192         64  H    CARTESIAN Z     0.616668     -3.767585  KCAL/ANGSTROM
    193         65  H    CARTESIAN X    -7.219546     33.003232  KCAL/ANGSTROM
    194         65  H    CARTESIAN Y     5.245583      9.783737  KCAL/ANGSTROM
    195         65  H    CARTESIAN Z     1.255074      6.576925  KCAL/ANGSTROM
    196         66  O    CARTESIAN X    -7.464659    -15.225986  KCAL/ANGSTROM
    197         66  O    CARTESIAN Y     3.713261     14.895080  KCAL/ANGSTROM
    198         66  O    CARTESIAN Z    -2.914414     24.799494  KCAL/ANGSTROM
    199         67  H    CARTESIAN X    -7.478621      6.220801  KCAL/ANGSTROM
    200         67  H    CARTESIAN Y     2.847919     -5.569295  KCAL/ANGSTROM
    201         67  H    CARTESIAN Z    -2.489368     -0.413761  KCAL/ANGSTROM
    202         68  H    CARTESIAN X    -6.929586     13.024346  KCAL/ANGSTROM
    203         68  H    CARTESIAN Y     3.578037     -7.940215  KCAL/ANGSTROM
    204         68  H    CARTESIAN Z    -3.756480    -23.342940  KCAL/ANGSTROM
    205         69  O    CARTESIAN X   -12.613236    -23.152475  KCAL/ANGSTROM
    206         69  O    CARTESIAN Y     1.055506     -2.306883  KCAL/ANGSTROM
    207         69  O    CARTESIAN Z    -4.368300     14.119636  KCAL/ANGSTROM
    208         70  H    CARTESIAN X   -11.785472     22.030638  KCAL/ANGSTROM
    209         70  H    CARTESIAN Y     1.461952      6.053593  KCAL/ANGSTROM
    210         70  H    CARTESIAN Z    -4.758865    -12.462952  KCAL/ANGSTROM
    211         71  H    CARTESIAN X   -12.694500      6.064863  KCAL/ANGSTROM
    212         71  H    CARTESIAN Y     0.228669     -4.718148  KCAL/ANGSTROM
    213         71  H    CARTESIAN Z    -4.855436     -2.307725  KCAL/ANGSTROM
    214         72  H    CARTESIAN X   -11.472117      5.539723  KCAL/ANGSTROM
    215         72  H    CARTESIAN Y     1.438080     -4.476620  KCAL/ANGSTROM
    216         72  H    CARTESIAN Z     0.375908      3.631018  KCAL/ANGSTROM
    217         73  H    CARTESIAN X    -7.386855    -12.848159  KCAL/ANGSTROM
    218         73  H    CARTESIAN Y     0.772562     -5.222638  KCAL/ANGSTROM
    219         73  H    CARTESIAN Z     0.182716      5.067707  KCAL/ANGSTROM




   ATOM   CHEMICAL          X               Y               Z
  NUMBER   SYMBOL      (ANGSTROMS)     (ANGSTROMS)     (ANGSTROMS)
 
     1       C        -10.70529200  *   0.72239600  *   0.67234500  *
     2       O        -10.89502100  *  -0.14686200  *   1.38747400  *
     3       N         -9.44347100  *   0.99225000  *   0.08041000  *
     4       H         -9.31205500  *   1.73896800  *  -0.58540600  *
     5       C         -8.26802000  *   0.16453700  *   0.38754600  *
     6       H         -8.24871500  *  -0.08734300  *   1.47775200  *
     7       C         -8.25789500  *  -1.16421300  *  -0.42206300  *
     8       H         -7.26298300  *  -1.65986300  *  -0.31490300  *
     9       H         -8.97865200  *  -1.87459300  *   0.06619000  *
    10       C         -8.57547600  *  -1.02356900  *  -1.88033500  *
    11       C         -9.78626000  *  -1.55664200  *  -2.36462800  *
    12       H        -10.48246200  *  -2.06746300  *  -1.70446500  *
    13       C        -10.10845900  *  -1.44003500  *  -3.72142300  *
    14       H        -11.04767800  *  -1.85170000  *  -4.08382000  *
    15       C         -9.22657800  *  -0.79721100  *  -4.58813100  *
    16       H         -9.49352200  *  -0.70178800  *  -5.65618300  *
    17       C         -7.70017100  *  -0.41419400  *  -2.77916300  *
    18       H         -6.71974000  *  -0.03842300  *  -2.44736700  *
    19       C         -8.02370200  *  -0.30738400  *  -4.11430100  *
    20       H         -7.31462500  *   0.15460300  *  -4.83652000  *
    21       O         -9.93312800  *   1.88418400  *  -2.63523300  *
    22       H         -9.54377600  *   1.22351300  *  -3.23000500  *
    23       H         -9.82462000  *   2.74033700  *  -3.12380300  *
    24       O         -7.47504300  *  -3.30884900  *  -5.07346400  *
    25       H         -7.65599300  *  -2.64055400  *  -4.39391500  *
    26       H         -8.28908800  *  -3.86556200  *  -5.09473600  *
    27       O        -10.49271500  *   2.12104400  *  -5.63378100  *
    28       H         -9.95689200  *   1.52014400  *  -6.15260700  *
    29       H        -10.02530200  *   2.97994400  *  -5.69047000  *
    30       O        -12.83215100  *  -3.93565800  *  -4.82704500  *
    31       H        -13.10322100  *  -4.84873500  *  -4.99634400  *
    32       H        -13.12612600  *  -3.76478900  *  -3.91411200  *
    33       O        -10.87133100  *  -2.50147700  *  -6.40260400  *
    34       H        -11.07076800  *  -3.23089700  *  -5.80030900  *
    35       H        -10.19115400  *  -2.84216500  *  -7.02606500  *
    36       O         -5.22860000  *   0.29419300  *  -7.52323400  *
    37       H         -5.90115000  *  -0.31127500  *  -7.11462200  *
    38       H         -5.63650400  *   1.19594500  *  -7.50732500  *
    39       O        -13.39212500  *  -1.95372300  *   0.97255600  *
    40       H        -13.23064400  *  -2.93538400  *   0.93225700  *
    41       H        -12.57120400  *  -1.63172300  *   1.39686300  *
    42       O        -10.68443700  *  -2.06118800  *   3.25999900  *
    43       H        -11.47209500  *  -1.94551300  *   3.85830900  *
    44       H        -10.55698200  *  -1.19025300  *   2.88442400  *
    45       O         -7.14455900  *  -1.50865000  *  -7.03896200  *
    46       H         -6.95035000  *  -2.06688400  *  -7.83086900  *
    47       H         -7.33757100  *  -2.11620700  *  -6.30255300  *
    48       O        -10.08788500  *   4.01304800  *  -1.09124400  *
    49       H        -10.16734300  *   4.27980200  *  -2.05376300  *
    50       H         -9.24669800  *   4.41776100  *  -0.83323500  *
    51       O        -13.09131500  *  -1.00263700  *  -6.55967600  *
    52       H        -12.67023800  *  -0.29937100  *  -7.09054100  *
    53       H        -12.31196200  *  -1.57625900  *  -6.37664600  *
    54       O         -8.79423000  *   0.45676000  *  -7.61247700  *
    55       H         -8.27321500  *   0.92627900  *  -8.32276800  *
    56       H         -8.27679300  *  -0.34371500  *  -7.37961800  *
    57       O        -11.26021300  *   0.41278000  *  -8.50731300  *
    58       H        -10.36308700  *   0.47857500  *  -8.06262200  *
    59       H        -11.08840700  *  -0.39141200  *  -9.00530500  *
    60       O         -8.55624600  *  -4.41241400  *  -0.24422300  *
    61       H         -9.01423900  *  -4.93584800  *  -0.97261700  *
    62       H         -7.68157600  *  -4.27069000  *  -0.62036300  *
    63       O         -8.08083200  *   4.76853300  *   0.98060000  *
    64       H         -7.77073800  *   3.92964500  *   0.61666800  *
    65       H         -7.21954600  *   5.24558300  *   1.25507400  *
    66       O         -7.46465900  *   3.71326100  *  -2.91441400  *
    67       H         -7.47862100  *   2.84791900  *  -2.48936800  *
    68       H         -6.92958600  *   3.57803700  *  -3.75648000  *
    69       O        -12.61323600  *   1.05550600  *  -4.36830000  *
    70       H        -11.78547200  *   1.46195200  *  -4.75886500  *
    71       H        -12.69450000  *   0.22866900  *  -4.85543600  *
    72       H        -11.47211700  *   1.43808000  *   0.37590800  *
    73       H         -7.38685500  *   0.77256200  *   0.18271600  *

                             CARTESIAN COORDINATES

   1    C      -10.705292000     0.722396000     0.672345000
   2    O      -10.895021000    -0.146862000     1.387474000
   3    N       -9.443471000     0.992250000     0.080410000
   4    H       -9.312055000     1.738968000    -0.585406000
   5    C       -8.268020000     0.164537000     0.387546000
   6    H       -8.248715000    -0.087343000     1.477752000
   7    C       -8.257895000    -1.164213000    -0.422063000
   8    H       -7.262983000    -1.659863000    -0.314903000
   9    H       -8.978652000    -1.874593000     0.066190000
  10    C       -8.575476000    -1.023569000    -1.880335000
  11    C       -9.786260000    -1.556642000    -2.364628000
  12    H      -10.482462000    -2.067463000    -1.704465000
  13    C      -10.108459000    -1.440035000    -3.721423000
  14    H      -11.047678000    -1.851700000    -4.083820000
  15    C       -9.226578000    -0.797211000    -4.588131000
  16    H       -9.493522000    -0.701788000    -5.656183000
  17    C       -7.700171000    -0.414194000    -2.779163000
  18    H       -6.719740000    -0.038423000    -2.447367000
  19    C       -8.023702000    -0.307384000    -4.114301000
  20    H       -7.314625000     0.154603000    -4.836520000
  21    O       -9.933128000     1.884184000    -2.635233000
  22    H       -9.543776000     1.223513000    -3.230005000
  23    H       -9.824620000     2.740337000    -3.123803000
  24    O       -7.475043000    -3.308849000    -5.073464000
  25    H       -7.655993000    -2.640554000    -4.393915000
  26    H       -8.289088000    -3.865562000    -5.094736000
  27    O      -10.492715000     2.121044000    -5.633781000
  28    H       -9.956892000     1.520144000    -6.152607000
  29    H      -10.025302000     2.979944000    -5.690470000
  30    O      -12.832151000    -3.935658000    -4.827045000
  31    H      -13.103221000    -4.848735000    -4.996344000
  32    H      -13.126126000    -3.764789000    -3.914112000
  33    O      -10.871331000    -2.501477000    -6.402604000
  34    H      -11.070768000    -3.230897000    -5.800309000
  35    H      -10.191154000    -2.842165000    -7.026065000
  36    O       -5.228600000     0.294193000    -7.523234000
  37    H       -5.901150000    -0.311275000    -7.114622000
  38    H       -5.636504000     1.195945000    -7.507325000
  39    O      -13.392125000    -1.953723000     0.972556000
  40    H      -13.230644000    -2.935384000     0.932257000
  41    H      -12.571204000    -1.631723000     1.396863000
  42    O      -10.684437000    -2.061188000     3.259999000
  43    H      -11.472095000    -1.945513000     3.858309000
  44    H      -10.556982000    -1.190253000     2.884424000
  45    O       -7.144559000    -1.508650000    -7.038962000
  46    H       -6.950350000    -2.066884000    -7.830869000
  47    H       -7.337571000    -2.116207000    -6.302553000
  48    O      -10.087885000     4.013048000    -1.091244000
  49    H      -10.167343000     4.279802000    -2.053763000
  50    H       -9.246698000     4.417761000    -0.833235000
  51    O      -13.091315000    -1.002637000    -6.559676000
  52    H      -12.670238000    -0.299371000    -7.090541000
  53    H      -12.311962000    -1.576259000    -6.376646000
  54    O       -8.794230000     0.456760000    -7.612477000
  55    H       -8.273215000     0.926279000    -8.322768000
  56    H       -8.276793000    -0.343715000    -7.379618000
  57    O      -11.260213000     0.412780000    -8.507313000
  58    H      -10.363087000     0.478575000    -8.062622000
  59    H      -11.088407000    -0.391412000    -9.005305000
  60    O       -8.556246000    -4.412414000    -0.244223000
  61    H       -9.014239000    -4.935848000    -0.972617000
  62    H       -7.681576000    -4.270690000    -0.620363000
  63    O       -8.080832000     4.768533000     0.980600000
  64    H       -7.770738000     3.929645000     0.616668000
  65    H       -7.219546000     5.245583000     1.255074000
  66    O       -7.464659000     3.713261000    -2.914414000
  67    H       -7.478621000     2.847919000    -2.489368000
  68    H       -6.929586000     3.578037000    -3.756480000
  69    O      -12.613236000     1.055506000    -4.368300000
  70    H      -11.785472000     1.461952000    -4.758865000
  71    H      -12.694500000     0.228669000    -4.855436000
  72    H      -11.472117000     1.438080000     0.375908000
  73    H       -7.386855000     0.772562000     0.182716000


           Empirical Formula: C9 H45 N O18  =    73 atoms



      MOLECULAR POINT GROUP   :   C1  


                EIGENVECTORS  


   Root No.       1         2         3         4         5         6         7         8

                 1 A       2 A       3 A       4 A       5 A       6 A       7 A       8 A   

               -36.044   -32.119   -31.509   -30.903   -30.666   -30.557   -30.375   -30.111
  
  S   C    1    0.3306    0.3600    0.0095    0.0028    0.0035    0.0028   -0.0018    0.0022
  Px  C    1    0.1681   -0.1174   -0.0194    0.0076    0.0067    0.0047   -0.0025    0.0030
  Py  C    1   -0.0037   -0.2749   -0.0271    0.0090    0.0074    0.0052   -0.0027    0.0030
  Pz  C    1   -0.0471    0.2474    0.0238   -0.0076   -0.0062   -0.0044    0.0023   -0.0026
  S   O    2    0.1279    0.7336    0.0583   -0.0159   -0.0126   -0.0087    0.0043   -0.0049
  Px  O    2    0.0554    0.0371    0.0003    0.0005    0.0006    0.0004   -0.0003    0.0004
  Py  O    2    0.0800    0.2370    0.0145   -0.0026   -0.0017   -0.0011    0.0004   -0.0005
  Pz  O    2   -0.0767   -0.1879   -0.0120    0.0024    0.0017    0.0011   -0.0005    0.0005
  S   N    3    0.8021   -0.2111   -0.0553    0.0239    0.0209    0.0148   -0.0079    0.0091
  Px  N    3   -0.0185   -0.0616    0.0052   -0.0051   -0.0048   -0.0037    0.0022   -0.0024
  Py  N    3   -0.0254   -0.0398   -0.0094    0.0051    0.0043    0.0031   -0.0018    0.0015
  Pz  N    3    0.0260    0.0504   -0.0026    0.0023    0.0024    0.0018   -0.0010    0.0015
  S   H    4    0.2458   -0.0928   -0.0147    0.0059    0.0045    0.0031   -0.0017    0.0010
  S   C    5    0.2437   -0.0788    0.0134   -0.0124   -0.0113   -0.0087    0.0054   -0.0049
  Px  C    5   -0.1337    0.0205    0.0103   -0.0051   -0.0045   -0.0033    0.0018   -0.0021
  Py  C    5    0.0885   -0.0333   -0.0209    0.0114    0.0101    0.0073   -0.0041    0.0042
  Pz  C    5   -0.0336    0.0256   -0.0135    0.0084    0.0074    0.0054   -0.0031    0.0031
  S   H    6    0.0803   -0.0141    0.0035   -0.0035   -0.0032   -0.0025    0.0016   -0.0014
  S   C    7    0.0753   -0.0348    0.0883   -0.0528   -0.0461   -0.0336    0.0191   -0.0183
  Px  C    7   -0.0197    0.0014   -0.0080    0.0043    0.0042    0.0023   -0.0012    0.0016
  Py  C    7    0.0468   -0.0170    0.0016   -0.0017   -0.0016   -0.0015    0.0009   -0.0010
  Pz  C    7    0.0132    0.0043   -0.0512    0.0268    0.0225    0.0160   -0.0087    0.0082
  S   H    8    0.0192   -0.0118    0.0359   -0.0213   -0.0183   -0.0136    0.0077   -0.0071
  S   H    9    0.0314   -0.0082    0.0339   -0.0202   -0.0180   -0.0127    0.0072   -0.0071
  S   C   10    0.0401   -0.0415    0.2878   -0.1461   -0.1224   -0.0860    0.0462   -0.0444
  Px  C   10   -0.0017   -0.0009   -0.0140    0.0060    0.0084    0.0019   -0.0007    0.0036
  Py  C   10    0.0113   -0.0056    0.0064   -0.0031   -0.0029   -0.0034    0.0019   -0.0031
  Pz  C   10    0.0203    0.0001   -0.0990    0.0413    0.0318    0.0217   -0.0106    0.0098
  S   C   11    0.0158   -0.0260    0.2713   -0.1286   -0.1149   -0.0672    0.0348   -0.0401
  Px  C   11    0.0059   -0.0093    0.0723   -0.0365   -0.0265   -0.0230    0.0121   -0.0085
  Py  C   11    0.0058   -0.0061    0.0464   -0.0224   -0.0195   -0.0146    0.0075   -0.0089
  Pz  C   11    0.0070    0.0027   -0.0696    0.0243    0.0226    0.0085   -0.0028    0.0064
  S   H   12    0.0079   -0.0069    0.0759   -0.0373   -0.0350   -0.0186    0.0104   -0.0124
  S   C   13    0.0047   -0.0219    0.2907   -0.1117   -0.1117   -0.0451    0.0180   -0.0390
  Px  C   13    0.0021   -0.0085    0.1027   -0.0437   -0.0270   -0.0271    0.0136   -0.0072
  Py  C   13    0.0014   -0.0036    0.0397   -0.0168   -0.0148   -0.0149    0.0074   -0.0093
  Pz  C   13    0.0027   -0.0034    0.0251   -0.0250   -0.0170   -0.0181    0.0125   -0.0050
  S   H   14    0.0010   -0.0059    0.0868   -0.0241   -0.0415    0.0053   -0.0055   -0.0148
  S   C   15    0.0039   -0.0233    0.3208   -0.1015   -0.0898   -0.0533    0.0226   -0.0408
  Px  C   15    0.0006   -0.0033    0.0414   -0.0157    0.0043   -0.0122    0.0090    0.0027
  Py  C   15    0.0002    0.0005   -0.0127    0.0035   -0.0014   -0.0077    0.0058   -0.0093
  Pz  C   15    0.0026   -0.0091    0.1034   -0.0582   -0.0443   -0.0285    0.0147   -0.0088
  S   H   16    0.0007   -0.0066    0.1028   -0.0065   -0.0212   -0.0083    0.0008   -0.0224
  S   C   17    0.0168   -0.0327    0.2987   -0.1389   -0.1070   -0.0823    0.0439   -0.0389
  Px  C   17   -0.0058    0.0100   -0.0956    0.0443    0.0383    0.0256   -0.0131    0.0147
  Py  C   17   -0.0001    0.0034   -0.0411    0.0190    0.0124    0.0088   -0.0044    0.0000
  Pz  C   17    0.0094   -0.0022   -0.0467    0.0112    0.0033    0.0052   -0.0023    0.0008
  S   H   18    0.0081   -0.0114    0.0850   -0.0408   -0.0308   -0.0250    0.0136   -0.0118
  S   C   19    0.0056   -0.0258    0.3238   -0.1213   -0.0861   -0.0718    0.0376   -0.0383
  Px  C   19   -0.0015    0.0057   -0.0749    0.0276    0.0285    0.0155   -0.0065    0.0118
  Py  C   19   -0.0003    0.0039   -0.0563    0.0197    0.0076    0.0059   -0.0021   -0.0055
  Pz  C   19    0.0037   -0.0078    0.0647   -0.0428   -0.0363   -0.0237    0.0121   -0.0075
  S   H   20    0.0012   -0.0072    0.0976   -0.0271   -0.0144   -0.0194    0.0118   -0.0167
  S   O   21    0.0162   -0.0219    0.1249   -0.0570   -0.0853   -0.0606    0.0299   -0.0824
  Px  O   21    0.0049   -0.0047    0.0216   -0.0098   -0.0127   -0.0092    0.0047   -0.0111
  Py  O   21   -0.0020    0.0016   -0.0116    0.0051    0.0032    0.0020   -0.0010   -0.0003
  Pz  O   21    0.0077    0.0004   -0.0391    0.0166    0.0245    0.0171   -0.0082    0.0221
  S   H   22    0.0097   -0.0125    0.0870   -0.0367   -0.0476   -0.0332    0.0161   -0.0386
  S   H   23    0.0062   -0.0078    0.0443   -0.0185   -0.0312   -0.0221    0.0106   -0.0309
  S   O   24    0.0007   -0.0134    0.3211    0.0224    0.4059    0.1847   -0.1273    0.5869
  Px  O   24   -0.0002    0.0030   -0.0707   -0.0029   -0.0822   -0.0406    0.0293   -0.1290
  Py  O   24    0.0002   -0.0018    0.0343    0.0036    0.0313    0.0085   -0.0029    0.0133
  Pz  O   24    0.0002   -0.0023    0.0468   -0.0085    0.0375    0.0192   -0.0167    0.0916
  S   H   25    0.0008   -0.0078    0.1573   -0.0017    0.1479    0.0641   -0.0445    0.2127
  S   H   26    0.0003   -0.0049    0.1158    0.0081    0.1397    0.0687   -0.0484    0.2071
  S   O   27    0.0006   -0.0037    0.0666    0.0985   -0.0756   -0.0684    0.0256   -0.0988
  Px  O   27    0.0002   -0.0009    0.0160    0.0221   -0.0143   -0.0178    0.0099   -0.0213
  Py  O   27   -0.0000    0.0001   -0.0030   -0.0027    0.0012   -0.0007    0.0015   -0.0026
  Pz  O   27    0.0001    0.0002   -0.0077   -0.0171    0.0077    0.0105   -0.0059    0.0102
  S   H   28    0.0003   -0.0020    0.0368    0.0523   -0.0332   -0.0333    0.0143   -0.0403
  S   H   29    0.0003   -0.0015    0.0241    0.0335   -0.0264   -0.0250    0.0102   -0.0355
  S   O   30    0.0000   -0.0009    0.0276    0.0418   -0.1720    0.5740    0.6080    0.0490
  Px  O   30    0.0000   -0.0000   -0.0005   -0.0025    0.0170   -0.0629   -0.0836   -0.0089
  Py  O   30    0.0000    0.0000   -0.0025   -0.0056    0.0268   -0.0961   -0.1111   -0.0100
  Pz  O   30    0.0000   -0.0001    0.0036    0.0045   -0.0257    0.0894    0.1063    0.0097
  S   H   31    0.0000   -0.0003    0.0101    0.0158   -0.0648    0.2175    0.2309    0.0187
  S   H   32    0.0000   -0.0004    0.0111    0.0147   -0.0634    0.2097    0.2240    0.0182
  S   O   33    0.0001   -0.0040    0.1181    0.1530   -0.2135    0.4439   -0.4218   -0.1510
  Px  O   33    0.0000   -0.0005    0.0118    0.0059   -0.0056    0.0332   -0.0264   -0.0141
  Py  O   33   -0.0000    0.0008   -0.0238   -0.0282    0.0414   -0.1040    0.0885    0.0344
  Pz  O   33    0.0000   -0.0004    0.0058   -0.0025   -0.0048    0.0056   -0.0006   -0.0008
  S   H   34    0.0001   -0.0020    0.0518    0.0570   -0.0851    0.1782   -0.1515   -0.0547
  S   H   35    0.0000   -0.0016    0.0463    0.0561   -0.0688    0.1559   -0.1465   -0.0524
  S   O   36    0.0000   -0.0016    0.0546    0.0938    0.1613    0.0167    0.0380   -0.2820
  Px  O   36   -0.0000    0.0005   -0.0170   -0.0274   -0.0450   -0.0044   -0.0105    0.0735
  Py  O   36   -0.0000    0.0000   -0.0002    0.0023    0.0027   -0.0006    0.0021   -0.0139
  Pz  O   36    0.0000   -0.0002    0.0071    0.0105    0.0183    0.0021    0.0039   -0.0286
  S   H   37    0.0000   -0.0011    0.0335    0.0489    0.0834    0.0099    0.0165   -0.1199
  S   H   38    0.0000   -0.0006    0.0203    0.0353    0.0571    0.0049    0.0145   -0.1018
  S   O   39    0.0004    0.0157    0.0027   -0.0014   -0.0014   -0.0007    0.0008   -0.0008
  Px  O   39    0.0001    0.0057    0.0009   -0.0004   -0.0004   -0.0002    0.0002   -0.0002
  Py  O   39   -0.0001   -0.0004   -0.0002    0.0001    0.0002    0.0000   -0.0001    0.0001
  Pz  O   39    0.0000    0.0024    0.0003   -0.0001   -0.0001   -0.0001    0.0001   -0.0001
  S   H   40    0.0002    0.0054    0.0011   -0.0005   -0.0006   -0.0002    0.0003   -0.0003
  S   H   41    0.0006    0.0139    0.0020   -0.0009   -0.0008   -0.0005    0.0004   -0.0004
  S   O   42    0.0014    0.0135    0.0021   -0.0010   -0.0010   -0.0007    0.0004   -0.0005
  Px  O   42    0.0002   -0.0009   -0.0002    0.0001    0.0001    0.0001   -0.0000    0.0000
  Py  O   42    0.0004    0.0042    0.0007   -0.0004   -0.0003   -0.0002    0.0001   -0.0002
  Pz  O   42    0.0001    0.0003   -0.0001    0.0001    0.0001    0.0000   -0.0000    0.0000
  S   H   43    0.0004    0.0049    0.0007   -0.0004   -0.0003   -0.0002    0.0002   -0.0002
  S   H   44    0.0025    0.0151    0.0020   -0.0009   -0.0008   -0.0006    0.0003   -0.0004
  S   O   45    0.0002   -0.0069    0.2172    0.2321    0.4973    0.1156    0.0178   -0.2992
  Px  O   45   -0.0000    0.0004   -0.0092   -0.0102   -0.0038    0.0018   -0.0021   -0.0008
  Py  O   45   -0.0000    0.0015   -0.0475   -0.0367   -0.1118   -0.0348    0.0059    0.0382
  Pz  O   45    0.0000   -0.0006    0.0093   -0.0091    0.0005    0.0042   -0.0057    0.0246
  S   H   46    0.0001   -0.0023    0.0750    0.0832    0.1751    0.0408    0.0065   -0.1092
  S   H   47    0.0002   -0.0040    0.1076    0.0806    0.2004    0.0538   -0.0035   -0.0680
  S   O   48    0.0091   -0.0080    0.0082   -0.0042   -0.0090   -0.0068    0.0036   -0.0130
  Px  O   48    0.0035   -0.0026    0.0013   -0.0007   -0.0016   -0.0012    0.0006   -0.0023
  Py  O   48   -0.0038    0.0011    0.0013   -0.0007   -0.0012   -0.0009    0.0005   -0.0017
  Pz  O   48    0.0004    0.0006   -0.0030    0.0014    0.0026    0.0019   -0.0010    0.0032
  S   H   49    0.0039   -0.0033    0.0058   -0.0027   -0.0053   -0.0039    0.0020   -0.0068
  S   H   50    0.0067   -0.0046    0.0032   -0.0017   -0.0036   -0.0027    0.0014   -0.0052
  S   O   51    0.0001   -0.0020    0.0664    0.2240   -0.2612    0.1853   -0.3418   -0.0059
  Px  O   51    0.0000   -0.0007    0.0207    0.0639   -0.0734    0.0528   -0.0939   -0.0023
  Py  O   51    0.0000   -0.0000    0.0016    0.0115   -0.0093   -0.0017   -0.0076    0.0035
  Pz  O   51    0.0000    0.0001   -0.0040   -0.0198    0.0189   -0.0092    0.0223   -0.0032
  S   H   52    0.0000   -0.0009    0.0288    0.1011   -0.1064    0.0626   -0.1265    0.0048
  S   H   53    0.0000   -0.0011    0.0335    0.0918   -0.1094    0.0895   -0.1434   -0.0089
  S   O   54    0.0001   -0.0040    0.1327    0.3605    0.1158   -0.1153    0.1437   -0.2913
  Px  O   54    0.0000   -0.0007    0.0233    0.0415    0.0461   -0.0051    0.0216   -0.0833
  Py  O   54   -0.0000    0.0006   -0.0178   -0.0291   -0.0204    0.0041   -0.0099    0.0303
  Pz  O   54    0.0000    0.0000   -0.0074   -0.0435   -0.0058    0.0163   -0.0168    0.0196
  S   H   55    0.0000   -0.0013    0.0456    0.1286    0.0408   -0.0413    0.0512   -0.1025
  S   H   56    0.0001   -0.0023    0.0688    0.1402    0.0733   -0.0321    0.0515   -0.1305
  S   O   57    0.0000   -0.0022    0.0965    0.5936   -0.2425   -0.2840    0.1484    0.3138
  Px  O   57    0.0000   -0.0006    0.0237    0.1339   -0.0472   -0.0675    0.0407    0.0614
  Py  O   57   -0.0000    0.0004   -0.0177   -0.1093    0.0474    0.0490   -0.0227   -0.0592
  Pz  O   57    0.0000   -0.0001    0.0005   -0.0104    0.0040    0.0099   -0.0082   -0.0143
  S   H   58    0.0000   -0.0012    0.0450    0.2335   -0.0815   -0.1072    0.0597    0.0906
  S   H   59    0.0000   -0.0009    0.0401    0.2420   -0.0994   -0.1123    0.0568    0.1253
  S   O   60    0.0010   -0.0011    0.0085   -0.0053   -0.0041   -0.0030    0.0019   -0.0004
  Px  O   60    0.0002   -0.0002    0.0014   -0.0008   -0.0006   -0.0005    0.0003   -0.0001
  Py  O   60    0.0005   -0.0002    0.0007   -0.0004   -0.0004   -0.0003    0.0001   -0.0002
  Pz  O   60   -0.0002    0.0003   -0.0025    0.0015    0.0011    0.0008   -0.0005    0.0000
  S   H   61    0.0004   -0.0005    0.0038   -0.0022   -0.0016   -0.0011    0.0007   -0.0000
  S   H   62    0.0009   -0.0008    0.0055   -0.0032   -0.0024   -0.0018    0.0011   -0.0003
  S   O   63    0.0042   -0.0039    0.0003   -0.0003   -0.0009   -0.0008    0.0005   -0.0021
  Px  O   63    0.0009   -0.0008   -0.0000   -0.0000   -0.0001   -0.0001    0.0001   -0.0004
  Py  O   63   -0.0019    0.0012   -0.0000    0.0001    0.0002    0.0001   -0.0001    0.0004
  Pz  O   63   -0.0010    0.0006   -0.0001    0.0001    0.0002    0.0002   -0.0001    0.0003
  S   H   64    0.0055   -0.0033    0.0001   -0.0002   -0.0005   -0.0004    0.0002   -0.0011
  S   H   65    0.0012   -0.0012    0.0001   -0.0001   -0.0003   -0.0002    0.0001   -0.0006
  S   O   66    0.0039   -0.0054    0.0179   -0.0094   -0.0140   -0.0113    0.0065   -0.0177
  Px  O   66   -0.0001   -0.0001    0.0007   -0.0004   -0.0005   -0.0005    0.0004   -0.0009
  Py  O   66   -0.0020    0.0021   -0.0064    0.0032    0.0045    0.0036   -0.0020    0.0052
  Pz  O   66    0.0007   -0.0002   -0.0006    0.0002    0.0005    0.0005   -0.0003    0.0009
  S   H   67    0.0049   -0.0042    0.0118   -0.0058   -0.0080   -0.0063    0.0035   -0.0089
  S   H   68    0.0012   -0.0018    0.0067   -0.0032   -0.0049   -0.0040    0.0023   -0.0062
  S   O   69    0.0003   -0.0021    0.0385    0.0487   -0.0825    0.0188   -0.0711   -0.0440
  Px  O   69    0.0002   -0.0005    0.0082    0.0073   -0.0134    0.0009   -0.0091   -0.0083
  Py  O   69   -0.0000    0.0002   -0.0053   -0.0080    0.0128   -0.0056    0.0132    0.0043
  Pz  O   69   -0.0001    0.0005   -0.0090   -0.0120    0.0191   -0.0049    0.0167    0.0091
  S   H   70    0.0004   -0.0013    0.0207    0.0208   -0.0348    0.0028   -0.0240   -0.0208
  S   H   71    0.0002   -0.0011    0.0204    0.0271   -0.0432    0.0141   -0.0399   -0.0179
  S   H   72    0.0989    0.0878    0.0000    0.0022    0.0022    0.0017   -0.0010    0.0011
  S   H   73    0.0831   -0.0364    0.0077   -0.0062   -0.0056   -0.0044    0.0026   -0.0025


   Root No.       9        10        11        12        13        14        15        16

                 9 A      10 A      11 A      12 A      13 A      14 A      15 A      16 A   

               -29.938   -29.819   -29.506   -29.413   -29.341   -29.050   -28.787   -28.777
  
  S   C    1    0.0019    0.0039    0.0003    0.0004    0.0041    0.0008   -0.0061   -0.0135
  Px  C    1    0.0004    0.0016    0.0018    0.0020   -0.0040    0.0009   -0.0022   -0.0011
  Py  C    1    0.0013    0.0030    0.0009    0.0010    0.0009    0.0008   -0.0026    0.0042
  Pz  C    1   -0.0007   -0.0019   -0.0012   -0.0013    0.0015   -0.0008    0.0018   -0.0071
  S   O    2   -0.0005   -0.0023   -0.0027   -0.0030    0.0060   -0.0015    0.0025   -0.0076
  Px  O    2   -0.0001    0.0000    0.0004    0.0005   -0.0014    0.0002   -0.0016   -0.0119
  Py  O    2    0.0005    0.0007   -0.0005   -0.0006    0.0027   -0.0001   -0.0029   -0.0199
  Pz  O    2   -0.0001   -0.0001    0.0003    0.0003   -0.0011    0.0000    0.0014    0.0091
  S   N    3    0.0028    0.0073    0.0040    0.0045   -0.0042    0.0025   -0.0064    0.0052
  Px  N    3   -0.0023   -0.0046    0.0000    0.0001   -0.0063   -0.0009    0.0062    0.0051
  Py  N    3    0.0030    0.0052   -0.0016   -0.0020    0.0125   -0.0001   -0.0033    0.0008
  Pz  N    3   -0.0002    0.0001    0.0014    0.0016   -0.0048    0.0006   -0.0006   -0.0030
  S   H    4    0.0033    0.0055   -0.0026   -0.0031    0.0155   -0.0005   -0.0033    0.0033
  S   C    5   -0.0079   -0.0145    0.0028    0.0035   -0.0288   -0.0012    0.0145    0.0063
  Px  C    5   -0.0007   -0.0019   -0.0010   -0.0011    0.0009   -0.0008    0.0029   -0.0003
  Py  C    5    0.0038    0.0074   -0.0001   -0.0002    0.0098    0.0008   -0.0050    0.0003
  Pz  C    5    0.0029    0.0056   -0.0002   -0.0003    0.0072    0.0007   -0.0039   -0.0012
  S   H    6   -0.0027   -0.0049    0.0011    0.0014   -0.0105   -0.0003    0.0053    0.0023
  S   C    7   -0.0202   -0.0380    0.0031    0.0041   -0.0570   -0.0035    0.0274    0.0050
  Px  C    7    0.0016    0.0025   -0.0004   -0.0003    0.0043   -0.0004   -0.0004   -0.0004
  Py  C    7   -0.0008   -0.0017    0.0001    0.0001   -0.0026   -0.0004    0.0017    0.0009
  Pz  C    7    0.0078    0.0143   -0.0006   -0.0007    0.0168    0.0013   -0.0064    0.0009
  S   H    8   -0.0081   -0.0154    0.0012    0.0017   -0.0230   -0.0016    0.0117    0.0019
  S   H    9   -0.0081   -0.0149    0.0014    0.0018   -0.0234   -0.0010    0.0109    0.0029
  S   C   10   -0.0426   -0.0767    0.0051    0.0058   -0.0972   -0.0057    0.0355   -0.0002
  Px  C   10    0.0024    0.0020   -0.0007   -0.0000    0.0054   -0.0026    0.0021   -0.0002
  Py  C   10    0.0014    0.0010   -0.0022   -0.0027    0.0085   -0.0014   -0.0023   -0.0001
  Pz  C   10    0.0078    0.0125   -0.0011   -0.0007    0.0103    0.0006    0.0012    0.0033
  S   C   11   -0.0390   -0.0618    0.0074    0.0069   -0.0878    0.0036    0.0233   -0.0015
  Px  C   11   -0.0098   -0.0185    0.0015    0.0018   -0.0221   -0.0036    0.0080   -0.0008
  Py  C   11   -0.0041   -0.0090   -0.0005   -0.0012   -0.0074   -0.0006    0.0010   -0.0005
  Pz  C   11    0.0059    0.0047   -0.0025   -0.0017    0.0090   -0.0034    0.0020    0.0025
  S   H   12   -0.0126   -0.0198    0.0024    0.0024   -0.0300    0.0019    0.0090    0.0014
  S   C   13   -0.0340   -0.0383    0.0108    0.0073   -0.0692    0.0125    0.0101   -0.0047
  Px  C   13   -0.0099   -0.0154    0.0038    0.0028   -0.0199   -0.0044    0.0030   -0.0017
  Py  C   13    0.0016   -0.0034   -0.0003   -0.0023   -0.0005    0.0006   -0.0029   -0.0006
  Pz  C   13   -0.0057   -0.0177   -0.0015    0.0002   -0.0156   -0.0016    0.0058    0.0005
  S   H   14   -0.0129   -0.0064    0.0035    0.0027   -0.0216    0.0106    0.0033   -0.0014
  S   C   15   -0.0220   -0.0204    0.0158    0.0047   -0.0484    0.0013    0.0007   -0.0059
  Px  C   15   -0.0007   -0.0070    0.0011    0.0008   -0.0008   -0.0070    0.0008   -0.0009
  Py  C   15    0.0084    0.0060   -0.0035   -0.0047    0.0135   -0.0034   -0.0054    0.0005
  Pz  C   15   -0.0118   -0.0247   -0.0030    0.0012   -0.0191    0.0014    0.0026   -0.0015
  S   H   16   -0.0048    0.0101    0.0148    0.0019   -0.0134    0.0000   -0.0008   -0.0019
  S   C   17   -0.0318   -0.0602    0.0017    0.0027   -0.0593   -0.0096    0.0238   -0.0043
  Px  C   17    0.0103    0.0175   -0.0008    0.0004    0.0188    0.0008   -0.0013    0.0005
  Py  C   17    0.0074    0.0118   -0.0039   -0.0046    0.0227   -0.0004   -0.0053    0.0003
  Pz  C   17   -0.0016   -0.0030   -0.0007   -0.0006   -0.0077    0.0011    0.0068    0.0021
  S   H   18   -0.0093   -0.0187   -0.0004    0.0005   -0.0162   -0.0041    0.0123   -0.0015
  S   C   19   -0.0207   -0.0370    0.0059    0.0033   -0.0376   -0.0091    0.0057   -0.0062
  Px  C   19    0.0045    0.0034   -0.0028    0.0018    0.0079   -0.0009    0.0049    0.0008
  Py  C   19    0.0072    0.0096   -0.0057   -0.0050    0.0206   -0.0010   -0.0045    0.0012
  Pz  C   19   -0.0101   -0.0202   -0.0030   -0.0009   -0.0130   -0.0016    0.0060   -0.0007
  S   H   20   -0.0030   -0.0078    0.0009    0.0035   -0.0063   -0.0044    0.0023   -0.0022
  S   O   21    0.1146    0.1470   -0.1606   -0.1828    0.6645   -0.0278   -0.3293    0.0393
  Px  O   21    0.0128    0.0169   -0.0194   -0.0222    0.0796   -0.0059   -0.0327    0.0038
  Py  O   21    0.0062    0.0094   -0.0070   -0.0076    0.0313   -0.0035   -0.0044    0.0009
  Pz  O   21   -0.0305   -0.0381    0.0394    0.0441   -0.1582    0.0049    0.0772   -0.0089
  S   H   22    0.0452    0.0557   -0.0611   -0.0688    0.2428   -0.0087   -0.1189    0.0137
  S   H   23    0.0475    0.0615   -0.0606   -0.0674    0.2454   -0.0122   -0.1027    0.0125
  S   O   24    0.0805    0.1231    0.0822    0.1935    0.1087    0.0018   -0.0077    0.0033
  Px  O   24   -0.0148   -0.0290   -0.0199   -0.0467   -0.0245   -0.0008    0.0016   -0.0007
  Py  O   24    0.0050   -0.0022   -0.0032   -0.0095   -0.0039   -0.0006    0.0004   -0.0002
  Pz  O   24    0.0089    0.0202    0.0193    0.0453    0.0184    0.0005   -0.0007    0.0003
  S   H   25    0.0271    0.0400    0.0299    0.0679    0.0318    0.0002   -0.0013    0.0005
  S   H   26    0.0242    0.0463    0.0295    0.0702    0.0387    0.0012   -0.0027    0.0012
  S   O   27    0.3961    0.6238   -0.1007    0.0397   -0.2608   -0.2780    0.0233   -0.0019
  Px  O   27    0.0756    0.1379   -0.0211    0.0089   -0.0550   -0.0974    0.0020   -0.0001
  Py  O   27    0.0094    0.0233   -0.0062    0.0007   -0.0085   -0.0313   -0.0004    0.0001
  Pz  O   27   -0.0409   -0.0768    0.0093   -0.0080    0.0412    0.0571   -0.0052    0.0005
  S   H   28    0.1500    0.2421   -0.0314    0.0173   -0.0982   -0.1085    0.0083   -0.0008
  S   H   29    0.1382    0.2221   -0.0371    0.0125   -0.0859   -0.1088    0.0060   -0.0004
  S   O   30    0.0694   -0.0285    0.0034   -0.0005    0.0021   -0.0027   -0.0004   -0.0003
  Px  O   30   -0.0163    0.0080   -0.0014    0.0001   -0.0004    0.0010    0.0001    0.0000
  Py  O   30   -0.0138    0.0054   -0.0005    0.0002   -0.0006    0.0003    0.0001    0.0000
  Pz  O   30    0.0156   -0.0071    0.0011   -0.0001    0.0000   -0.0003   -0.0000   -0.0000
  S   H   31    0.0261   -0.0106    0.0012   -0.0002    0.0009   -0.0010   -0.0002   -0.0001
  S   H   32    0.0269   -0.0116    0.0016   -0.0001    0.0004   -0.0008   -0.0001   -0.0000
  S   O   33   -0.4325    0.2624   -0.0629   -0.0070    0.0040    0.0421    0.0014    0.0007
  Px  O   33   -0.0650    0.0458   -0.0115   -0.0022   -0.0012    0.0146    0.0007   -0.0000
  Py  O   33    0.1188   -0.0760    0.0194    0.0021   -0.0005   -0.0170   -0.0008   -0.0002
  Pz  O   33    0.0011   -0.0010    0.0012    0.0013   -0.0012    0.0001    0.0002   -0.0001
  S   H   34   -0.1595    0.0963   -0.0224   -0.0015    0.0006    0.0156    0.0007    0.0001
  S   H   35   -0.1608    0.0993   -0.0237   -0.0041    0.0010    0.0180    0.0006    0.0002
  S   O   36    0.0183   -0.1353   -0.4375    0.6467    0.0804    0.0001   -0.0020    0.0004
  Px  O   36   -0.0044    0.0334    0.1022   -0.1508   -0.0188   -0.0001    0.0004   -0.0001
  Py  O   36    0.0004   -0.0070   -0.0280    0.0540    0.0082    0.0002   -0.0001    0.0000
  Pz  O   36    0.0020   -0.0134   -0.0408    0.0565    0.0066   -0.0001   -0.0001    0.0000
  S   H   37    0.0083   -0.0541   -0.1568    0.2086    0.0234   -0.0002   -0.0006    0.0001
  S   H   38    0.0059   -0.0470   -0.1504    0.2324    0.0301    0.0002   -0.0006    0.0001
  S   O   39   -0.0005   -0.0012   -0.0003   -0.0004   -0.0013   -0.0005    0.1035    0.8517
  Px  O   39   -0.0001   -0.0003   -0.0001   -0.0001   -0.0003   -0.0001    0.0229    0.1880
  Py  O   39    0.0001    0.0001    0.0000    0.0000    0.0002    0.0001   -0.0140   -0.1158
  Pz  O   39   -0.0000   -0.0001   -0.0000   -0.0000   -0.0001   -0.0000    0.0092    0.0752
  S   H   40   -0.0002   -0.0004   -0.0001   -0.0001   -0.0005   -0.0002    0.0364    0.2997
  S   H   41   -0.0002   -0.0006   -0.0002   -0.0002   -0.0005   -0.0002    0.0388    0.3181
  S   O   42   -0.0004   -0.0009   -0.0001   -0.0001   -0.0012   -0.0003    0.0129    0.0936
  Px  O   42    0.0000    0.0001    0.0000    0.0000    0.0001    0.0000   -0.0022   -0.0170
  Py  O   42   -0.0001   -0.0003   -0.0000   -0.0000   -0.0004   -0.0001    0.0034    0.0244
  Pz  O   42    0.0000    0.0001   -0.0000   -0.0000    0.0001    0.0000   -0.0002   -0.0010
  S   H   43   -0.0001   -0.0003   -0.0000   -0.0000   -0.0004   -0.0001    0.0050    0.0369
  S   H   44   -0.0003   -0.0006   -0.0001   -0.0001   -0.0007   -0.0002    0.0061    0.0431
  S   O   45    0.0580   -0.1407   -0.2015   -0.4685   -0.1425   -0.0101    0.0025   -0.0002
  Px  O   45    0.0034   -0.0085   -0.0377    0.0172   -0.0025   -0.0010    0.0001    0.0000
  Py  O   45   -0.0172    0.0305    0.0601    0.1447    0.0437    0.0036   -0.0007    0.0001
  Pz  O   45    0.0018    0.0049   -0.0008    0.0032    0.0007   -0.0004   -0.0001   -0.0001
  S   H   46    0.0198   -0.0506   -0.0740   -0.1616   -0.0498   -0.0034    0.0009   -0.0000
  S   H   47    0.0241   -0.0416   -0.0668   -0.1636   -0.0477   -0.0037    0.0006   -0.0001
  S   O   48    0.0242    0.0347   -0.0446   -0.0552    0.2245   -0.0265    0.0233    0.0069
  Px  O   48    0.0043    0.0063   -0.0082   -0.0102    0.0418   -0.0052    0.0082    0.0010
  Py  O   48    0.0030    0.0044   -0.0060   -0.0075    0.0308   -0.0039    0.0050    0.0008
  Pz  O   48   -0.0056   -0.0077    0.0090    0.0107   -0.0422    0.0042    0.0017   -0.0014
  S   H   49    0.0121    0.0169   -0.0201   -0.0243    0.0968   -0.0103    0.0031    0.0030
  S   H   50    0.0097    0.0139   -0.0180   -0.0223    0.0909   -0.0110    0.0159    0.0022
  S   O   51    0.4689   -0.4107    0.1271    0.0225    0.0334   -0.2325   -0.0140    0.0016
  Px  O   51    0.1194   -0.1042    0.0314    0.0055    0.0081   -0.0558   -0.0033    0.0004
  Py  O   51    0.0270   -0.0170    0.0032    0.0003    0.0004    0.0033    0.0004   -0.0000
  Pz  O   51   -0.0323    0.0349   -0.0087   -0.0013   -0.0031    0.0313    0.0021   -0.0002
  S   H   52    0.1786   -0.1544    0.0415    0.0068    0.0109   -0.0770   -0.0045    0.0005
  S   H   53    0.1544   -0.1382    0.0431    0.0078    0.0114   -0.0774   -0.0046    0.0005
  S   O   54   -0.0787    0.0919    0.6312    0.1861    0.1593    0.0268   -0.0026    0.0015
  Px  O   54   -0.0117    0.0100    0.1436    0.0433    0.0387    0.0076   -0.0009    0.0004
  Py  O   54    0.0096    0.0032   -0.0453   -0.0053   -0.0120   -0.0053    0.0005   -0.0000
  Pz  O   54    0.0171    0.0000   -0.0631   -0.0215   -0.0215   -0.0079    0.0005   -0.0003
  S   H   55   -0.0284    0.0302    0.2163    0.0710    0.0570    0.0098   -0.0009    0.0006
  S   H   56   -0.0257    0.0234    0.2141    0.0486    0.0504    0.0095   -0.0009    0.0004
  S   O   57   -0.1762   -0.0523   -0.2552   -0.0720   -0.0298    0.0400    0.0002   -0.0002
  Px  O   57   -0.0450    0.0022   -0.0446   -0.0117   -0.0057    0.0106    0.0004   -0.0001
  Py  O   57    0.0296    0.0164    0.0488    0.0143    0.0049   -0.0062    0.0002    0.0000
  Pz  O   57    0.0155    0.0014    0.0171    0.0052    0.0012   -0.0059    0.0000    0.0000
  S   H   58   -0.0588   -0.0020   -0.0522   -0.0133   -0.0056    0.0108    0.0003   -0.0001
  S   H   59   -0.0697   -0.0241   -0.1005   -0.0287   -0.0110    0.0152   -0.0001   -0.0001
  S   O   60   -0.0029   -0.0054    0.0012    0.0021   -0.0124   -0.0006    0.0116    0.0029
  Px  O   60   -0.0004   -0.0008    0.0002    0.0003   -0.0017   -0.0001    0.0015    0.0003
  Py  O   60   -0.0001   -0.0002   -0.0000   -0.0001   -0.0001   -0.0000   -0.0004   -0.0001
  Pz  O   60    0.0007    0.0014   -0.0003   -0.0006    0.0031    0.0001   -0.0028   -0.0007
  S   H   61   -0.0011   -0.0020    0.0005    0.0008   -0.0045   -0.0002    0.0041    0.0011
  S   H   62   -0.0015   -0.0029    0.0006    0.0010   -0.0060   -0.0003    0.0051    0.0012
  S   O   63    0.0044    0.0069   -0.0118   -0.0161    0.0720   -0.0148    0.0972    0.0006
  Px  O   63    0.0008    0.0013   -0.0023   -0.0033    0.0148   -0.0033    0.0233    0.0001
  Py  O   63   -0.0008   -0.0012    0.0018    0.0025   -0.0108    0.0020   -0.0123   -0.0001
  Pz  O   63   -0.0006   -0.0010    0.0014    0.0017   -0.0074    0.0011   -0.0050   -0.0001
  S   H   64    0.0022    0.0034   -0.0055   -0.0074    0.0326   -0.0064    0.0398    0.0002
  S   H   65    0.0013    0.0021   -0.0036   -0.0049    0.0221   -0.0046    0.0311    0.0002
  S   O   66    0.0253    0.0365   -0.0546   -0.0670    0.2801   -0.0619    0.7871   -0.0988
  Px  O   66    0.0012    0.0019   -0.0037   -0.0047    0.0208   -0.0058    0.0842   -0.0107
  Py  O   66   -0.0071   -0.0101    0.0146    0.0177   -0.0729    0.0152   -0.1845    0.0231
  Pz  O   66   -0.0014   -0.0022    0.0029    0.0035   -0.0151    0.0041   -0.0546    0.0070
  S   H   67    0.0120    0.0169   -0.0243   -0.0295    0.1210   -0.0247    0.2965   -0.0371
  S   H   68    0.0088    0.0128   -0.0184   -0.0223    0.0934   -0.0210    0.2637   -0.0331
  S   O   69    0.3174    0.1010   -0.0207   -0.0022   -0.0370    0.7759    0.0595   -0.0061
  Px  O   69    0.0510    0.0242   -0.0055   -0.0011   -0.0047    0.1118    0.0071   -0.0007
  Py  O   69   -0.0393   -0.0008   -0.0007   -0.0004    0.0043   -0.0898   -0.0077    0.0008
  Pz  O   69   -0.0676   -0.0188    0.0034    0.0001    0.0080   -0.1493   -0.0116    0.0012
  S   H   70    0.1296    0.0618   -0.0131   -0.0014   -0.0157    0.2597    0.0178   -0.0018
  S   H   71    0.1401    0.0256   -0.0038   -0.0000   -0.0143    0.2976    0.0231   -0.0024
  S   H   72    0.0013    0.0024   -0.0002   -0.0003    0.0039    0.0004   -0.0030   -0.0025
  S   H   73   -0.0032   -0.0061    0.0007    0.0009   -0.0101   -0.0009    0.0077    0.0027


   Root No.      17        18        19        20        21        22        23        24

                17 A      18 A      19 A      20 A      21 A      22 A      23 A      24 A   

               -28.708   -28.284   -28.274   -27.678   -27.582   -26.381   -25.121   -22.865
  
  S   C    1   -0.0030   -0.0080   -0.0110   -0.0895    0.0224    0.0100   -0.1913    0.3760
  Px  C    1   -0.0042   -0.0046   -0.0035   -0.0236    0.0225    0.0038   -0.0150   -0.0321
  Py  C    1   -0.0025   -0.0052   -0.0071   -0.0479    0.0299    0.0049   -0.1028    0.1717
  Pz  C    1    0.0035    0.0042    0.0051    0.0378   -0.0192   -0.0078    0.0824   -0.1308
  S   O    2    0.0057    0.0059    0.0060    0.0538   -0.0127   -0.0103    0.1064   -0.2678
  Px  O    2   -0.0007   -0.0005    0.0002    0.0019    0.0066    0.0011    0.0059   -0.0055
  Py  O    2    0.0008   -0.0012   -0.0021   -0.0280   -0.0186   -0.0001   -0.0445    0.1232
  Pz  O    2   -0.0002    0.0006    0.0011    0.0255    0.0296   -0.0023    0.0329   -0.1016
  S   N    3   -0.0109   -0.0149   -0.0149   -0.0944    0.0609    0.0038   -0.0658   -0.1025
  Px  N    3    0.0030    0.0081    0.0128    0.0957   -0.0422   -0.0154    0.2231   -0.3197
  Py  N    3    0.0024   -0.0049   -0.0101   -0.0618    0.0351    0.0010   -0.1017    0.0052
  Pz  N    3   -0.0018   -0.0022    0.0002   -0.0067    0.0024    0.0009    0.0138    0.0510
  S   H    4    0.0024   -0.0013   -0.0080   -0.0366    0.0240   -0.0004   -0.0445   -0.0654
  S   C    5    0.0022    0.0221    0.0361    0.2377   -0.1223   -0.0286    0.4297   -0.1655
  Px  C    5    0.0035    0.0045    0.0055    0.0353   -0.0218   -0.0129    0.0460    0.0293
  Py  C    5   -0.0023   -0.0127   -0.0151   -0.0883    0.0527   -0.0031   -0.0450   -0.1853
  Pz  C    5   -0.0011   -0.0060   -0.0069   -0.0493    0.0307    0.0060    0.0010   -0.0204
  S   H    6    0.0009    0.0086    0.0146    0.0936   -0.0438   -0.0091    0.1935   -0.0577
  S   C    7    0.0104    0.0526    0.0683    0.3996   -0.2290    0.0032    0.2361    0.3163
  Px  C    7   -0.0004   -0.0007    0.0006   -0.0024    0.0012   -0.0439    0.0341    0.0041
  Py  C    7   -0.0006   -0.0016   -0.0019    0.0351   -0.0176   -0.0283    0.0860   -0.0927
  Pz  C    7   -0.0039   -0.0072   -0.0036   -0.0486    0.0339   -0.0016    0.1582   -0.0414
  S   H    8    0.0045    0.0253    0.0348    0.1686   -0.0970   -0.0138    0.1103    0.1638
  S   H    9    0.0043    0.0253    0.0346    0.1580   -0.0886    0.0282    0.0987    0.1592
  S   C   10    0.0188    0.0445    0.0366    0.3215   -0.1951    0.0136   -0.2454    0.0805
  Px  C   10   -0.0016    0.0010    0.0050    0.0346   -0.0197   -0.1957    0.0233    0.0210
  Py  C   10   -0.0028   -0.0063   -0.0047   -0.0086    0.0057   -0.1089    0.0064   -0.0565
  Pz  C   10   -0.0017    0.0145    0.0271    0.1222   -0.0688    0.0363    0.1470    0.1887
  S   C   11    0.0186    0.0235    0.0019    0.0784   -0.0515    0.4183   -0.2043   -0.1211
  Px  C   11    0.0041    0.0095    0.0076    0.0744   -0.0456   -0.0626   -0.0795    0.0518
  Py  C   11    0.0009   -0.0004   -0.0021    0.0120   -0.0076   -0.0212   -0.0225    0.0018
  Pz  C   11   -0.0018    0.0124    0.0236    0.1237   -0.0734   -0.0911   -0.0532    0.0989
  S   H   12    0.0066    0.0128    0.0079    0.0491   -0.0309    0.1886   -0.0764   -0.0380
  S   C   13    0.0142   -0.0072   -0.0384   -0.1809    0.1065    0.4259    0.1287   -0.0719
  Px  C   13    0.0034   -0.0030   -0.0110   -0.0438    0.0256   -0.0175    0.0251    0.0391
  Py  C   13   -0.0008   -0.0055   -0.0062   -0.0340    0.0206   -0.0393    0.0472    0.0497
  Pz  C   13    0.0037    0.0100    0.0085    0.0700   -0.0440    0.1057   -0.1697   -0.1429
  S   H   14    0.0048   -0.0025   -0.0133   -0.0696    0.0414    0.1946    0.0694   -0.0356
  S   C   15    0.0071   -0.0255   -0.0523   -0.2812    0.1693    0.0088    0.3473    0.2320
  Px  C   15   -0.0008   -0.0039   -0.0044   -0.0164    0.0097   -0.2048   -0.0093    0.0260
  Py  C   15   -0.0041   -0.0040    0.0024    0.0038   -0.0020   -0.1130   -0.0027    0.0259
  Pz  C   15    0.0034   -0.0022   -0.0097   -0.0323    0.0180    0.0423   -0.0378   -0.0854
  S   H   16    0.0018   -0.0100   -0.0185   -0.1095    0.0667    0.0037    0.1783    0.1503
  S   C   17    0.0085    0.0071   -0.0047    0.0800   -0.0514   -0.3991   -0.2313   -0.1672
  Px  C   17   -0.0033   -0.0018    0.0024   -0.0096    0.0069   -0.0327    0.0407   -0.0106
  Py  C   17   -0.0055   -0.0079   -0.0024   -0.0344    0.0215   -0.0374    0.0401   -0.0250
  Pz  C   17    0.0027    0.0182    0.0239    0.1493   -0.0892    0.1123   -0.0617    0.0490
  S   H   18    0.0017    0.0042    0.0025    0.0511   -0.0314   -0.1833   -0.0842   -0.0773
  S   C   19    0.0030   -0.0233   -0.0416   -0.1913    0.1137   -0.4087    0.0976    0.0212
  Px  C   19   -0.0010    0.0070    0.0117    0.0714   -0.0431   -0.0799   -0.1099   -0.1042
  Py  C   19   -0.0049   -0.0011    0.0076    0.0259   -0.0152   -0.0210   -0.0210   -0.0233
  Pz  C   19    0.0019    0.0043    0.0032    0.0534   -0.0340   -0.0870   -0.1618   -0.1593
  S   H   20   -0.0006   -0.0097   -0.0144   -0.0744    0.0447   -0.1844    0.0577    0.0253
  S   O   21   -0.1475   -0.1351    0.1056    0.0638   -0.0353    0.0453   -0.0046    0.0049
  Px  O   21   -0.0189   -0.0172    0.0122    0.0052   -0.0027   -0.0009   -0.0008   -0.0048
  Py  O   21    0.0049    0.0125   -0.0038    0.0079   -0.0046    0.0097    0.0006    0.0044
  Pz  O   21    0.0363    0.0333   -0.0254   -0.0143    0.0080   -0.0059   -0.0069   -0.0045
  S   H   22   -0.0578   -0.0560    0.0380    0.0103   -0.0052   -0.0021    0.0026   -0.0014
  S   H   23   -0.0399   -0.0267    0.0261    0.0232   -0.0129    0.0165   -0.0005    0.0033
  S   O   24   -0.0060    0.0030    0.0131    0.0550   -0.0315    0.0220   -0.0236   -0.0105
  Px  O   24    0.0012   -0.0006   -0.0026   -0.0099    0.0056   -0.0078    0.0023    0.0012
  Py  O   24    0.0003   -0.0005   -0.0016   -0.0077    0.0047   -0.0108    0.0094    0.0101
  Pz  O   24   -0.0005    0.0001    0.0007    0.0015   -0.0007   -0.0031    0.0006    0.0006
  S   H   25   -0.0010    0.0001    0.0009    0.0013   -0.0004   -0.0090    0.0056    0.0059
  S   H   26   -0.0021    0.0012    0.0047    0.0185   -0.0106    0.0133   -0.0070   -0.0046
  S   O   27    0.0151    0.0118   -0.0011    0.0230   -0.0137    0.0058   -0.0211   -0.0134
  Px  O   27    0.0022    0.0016   -0.0002    0.0027   -0.0016    0.0010   -0.0004    0.0015
  Py  O   27    0.0002    0.0009    0.0007    0.0057   -0.0035    0.0020   -0.0114   -0.0139
  Pz  O   27   -0.0032   -0.0024    0.0013   -0.0006    0.0004   -0.0004   -0.0006   -0.0026
  S   H   28    0.0055    0.0034   -0.0014    0.0010   -0.0005   -0.0002    0.0064    0.0098
  S   H   29    0.0041    0.0036    0.0003    0.0092   -0.0055    0.0024   -0.0096   -0.0083
  S   O   30   -0.0004   -0.0001    0.0004    0.0023   -0.0013   -0.0072   -0.0011    0.0009
  Px  O   30    0.0001    0.0000   -0.0001   -0.0005    0.0003    0.0030    0.0008   -0.0012
  Py  O   30    0.0001    0.0000   -0.0002   -0.0014    0.0008    0.0055    0.0017   -0.0019
  Pz  O   30    0.0000   -0.0000   -0.0001   -0.0006    0.0003    0.0018    0.0008   -0.0008
  S   H   31   -0.0002   -0.0000    0.0002    0.0013   -0.0008   -0.0045   -0.0012    0.0012
[...]
  
  S  H  62   0.00000     0.00001     0.00000    -0.00000    -0.00000    -0.00000
  
  S  O  63  -0.00001    -0.00013    -0.00000    -0.00018     0.00409     0.00000
 PX  O  63  -0.00000    -0.00010    -0.00000    -0.00023    -0.05992     0.00000
 PY  O  63   0.00001     0.00023     0.00000     0.00028    -0.41455    -0.00000
 PZ  O  63   0.00002     0.00017     0.00000     0.00007     0.90752    -0.00000
  
  S  H  64   0.00001     0.00028     0.00000     0.00086     0.00065    -0.00000
  
  S  H  65   0.00001     0.00011     0.00000     0.00017    -0.00050    -0.00000
  
  S  O  66  -0.00020    -0.00331    -0.00002     0.00412     0.00022     0.00000
 PX  O  66   0.00007    -0.00077     0.00002     0.83567    -0.00004     0.00000
 PY  O  66   0.00037     0.00642     0.00005     0.23205    -0.00028    -0.00000
 PZ  O  66   0.00008    -0.00163    -0.00000     0.49733     0.00012     0.00000
  
  S  H  67   0.00029     0.01375     0.00004     0.00028    -0.00049    -0.00000
  
  S  H  68   0.00036     0.00274     0.00002    -0.00006    -0.00030    -0.00000
  
  S  O  69  -0.00227     0.00207     0.00106     0.00007     0.00000     0.00000
 PX  O  69  -0.00452     0.00354     0.55335     0.00019     0.00001     0.00000
 PY  O  69  -0.00161     0.00071    -0.46404     0.00005     0.00000    -0.00000
 PZ  O  69   0.00249    -0.00237     0.69169    -0.00009    -0.00000    -0.00000
  
  S  H  70   0.01167    -0.00920     0.00002    -0.00017    -0.00001    -0.00000
  
  S  H  71   0.00068    -0.00186     0.00004    -0.00005    -0.00000    -0.00000
  
  S  H  72  -0.00002    -0.00089     0.00004     0.00002     0.00001    -0.00018
  
  S  H  73   0.00001     0.00044     0.00000     0.00005     0.00007    -0.00001




    ROOT NO.   91          92          93          94          95          96

           -11.82998   -11.80151   -11.73886   -11.51731   -11.47439   -11.11405
  
  
  S  C   1  -0.00050    -0.00169     0.00122    -0.00002     0.00101     0.00245
 PX  C   1  -0.00019    -0.00390     0.00171     0.00008     0.00099     0.09218
 PY  C   1   0.00094     0.00018    -0.00060     0.00024    -0.00177     0.21071
 PZ  C   1   0.00140     0.00059    -0.00119     0.00027    -0.00239     0.26815
  
  S  O   2   0.00007     0.00019    -0.00014    -0.00000    -0.00014     0.00115
 PX  O   2  -0.00005     0.00144    -0.00034    -0.00007    -0.00015    -0.03095
 PY  O   2  -0.00034     0.00055     0.00009    -0.00006     0.00037    -0.07043
 PZ  O   2  -0.00069    -0.00057     0.00074    -0.00011     0.00106    -0.09287
  
  S  N   3   0.00050     0.00746    -0.00260    -0.00003    -0.00164     0.07254
 PX  N   3   0.00010     0.00057    -0.00017    -0.00003    -0.00027     0.21146
 PY  N   3   0.00035     0.00527    -0.00126     0.00003    -0.00109     0.56035
 PZ  N   3   0.00063    -0.00514     0.00047     0.00003    -0.00018     0.69741
  
  S  H   4   0.00004    -0.01988     0.00443     0.00005     0.00213     0.00167
  
  S  C   5   0.00893    -0.00140    -0.01289     0.00081    -0.01284    -0.01607
 PX  C   5   0.00002     0.00353    -0.00136     0.00001    -0.00067     0.00779
 PY  C   5  -0.01477    -0.00173     0.02112    -0.00114     0.02073     0.05687
 PZ  C   5  -0.00975     0.00080     0.01187    -0.00092     0.01318     0.05397
  
  S  H   6  -0.00311     0.00075     0.00456     0.00028     0.00414    -0.02219
  
  S  C   7  -0.00308     0.00013     0.00486    -0.00489     0.00518     0.02922
 PX  C   7  -0.00069    -0.00017    -0.00082     0.00315    -0.00185     0.00488
 PY  C   7  -0.00331     0.00028     0.00942     0.00284     0.00897     0.03863
 PZ  C   7  -0.00091     0.00025     0.00280    -0.00341     0.00180     0.02454
  
  S  H   8  -0.01313    -0.00043     0.01623     0.00134     0.01820    -0.00636
  
  S  H   9  -0.00252     0.00012     0.00394     0.00952     0.00275     0.00197
  
  S  C  10   0.00128     0.00026    -0.00268    -0.00020    -0.00125     0.00095
 PX  C  10   0.10329    -0.00007    -0.19869    -0.00001    -0.19402     0.00073
 PY  C  10  -0.20185     0.00029     0.39605     0.00065     0.37538     0.00308
 PZ  C  10  -0.03923     0.00024     0.07707    -0.00002     0.07285     0.00181
  
  S  C  11   0.00273     0.00006    -0.00016    -0.00082    -0.00230     0.00215
 PX  C  11   0.01710    -0.00000    -0.01301     0.00146    -0.32769     0.00245
 PY  C  11  -0.03532     0.00003     0.02945    -0.00015     0.61407    -0.00264
 PZ  C  11  -0.01213    -0.00001     0.00976    -0.00048     0.12226    -0.00013
  
  S  H  12  -0.00096    -0.00004     0.00078     0.00172     0.00460    -0.00073
  
  S  C  13  -0.00169     0.00011     0.00244     0.00021     0.00002    -0.00038
 PX  C  13  -0.19485    -0.00003     0.10282    -0.00023    -0.23473    -0.00047
 PY  C  13   0.37264     0.00018    -0.19305     0.00068     0.44362     0.00080
 PZ  C  13   0.07763     0.00004    -0.04200     0.00041     0.10249    -0.00047
  
  S  H  14   0.00508    -0.00003    -0.00350     0.00013     0.00644     0.00016
  
  S  C  15  -0.00621     0.00016    -0.00169    -0.00007     0.00230     0.00009
 PX  C  15  -0.32518    -0.00010     0.01282     0.00006    -0.01316    -0.00089
 PY  C  15   0.63202     0.00037    -0.02300     0.00014     0.02167     0.00195
 PZ  C  15   0.13568     0.00011    -0.00722    -0.00004     0.00729     0.00041
  
  S  H  16   0.00207    -0.00001    -0.00046     0.00005     0.00053    -0.00005
  
  S  C  17  -0.00055     0.00019     0.00800    -0.00027     0.00025    -0.00044
 PX  C  17   0.00796    -0.00019    -0.30027     0.00008    -0.00454     0.00147
 PY  C  17  -0.01546     0.00041     0.63906     0.00034     0.00653    -0.00083
 PZ  C  17  -0.00433     0.00004     0.12604    -0.00015     0.00265    -0.00100
  
  S  H  18  -0.00036    -0.00004    -0.00158    -0.00002     0.00116    -0.00047
  
  S  C  19  -0.00066     0.00020     0.00111     0.00001    -0.00037     0.00016
 PX  C  19  -0.20016    -0.00020    -0.19850     0.00030     0.09504     0.00079
 PY  C  19   0.42937     0.00037     0.42560    -0.00053    -0.20364    -0.00170
 PZ  C  19   0.08526     0.00011     0.08425    -0.00006    -0.03991    -0.00025
  
  S  H  20  -0.00144    -0.00002    -0.00232    -0.00005     0.00183    -0.00014
  
  S  O  21  -0.00792     0.00601    -0.00760    -0.00001    -0.00143     0.00181
 PX  O  21  -0.00741     0.00357    -0.00668    -0.00000    -0.00110     0.00109
 PY  O  21   0.00883     0.00463     0.00733     0.00000     0.00066     0.00025
 PZ  O  21   0.01261    -0.00797     0.01197     0.00000     0.00184    -0.00312
  
  S  H  22   0.04248    -0.01021     0.03803     0.00001     0.00578    -0.00553
  
  S  H  23   0.00582    -0.02040     0.00813     0.00001     0.00270    -0.00481
  
  S  O  24   0.01072     0.00002     0.00524    -0.00004     0.00045     0.00003
 PX  O  24  -0.00920    -0.00003    -0.00368     0.00004    -0.00109    -0.00004
 PY  O  24   0.01034     0.00003     0.00787    -0.00003    -0.00069     0.00003
 PZ  O  24   0.01382     0.00003     0.00810    -0.00005     0.00011     0.00003
  
  S  H  25  -0.05044    -0.00007    -0.02767     0.00014    -0.00051    -0.00011
  
  S  H  26  -0.01504    -0.00002    -0.00251     0.00006    -0.00202    -0.00004
  
  S  O  27  -0.00250     0.00022    -0.00026    -0.00000     0.00006     0.00008
 PX  O  27  -0.00283     0.00030    -0.00058    -0.00000     0.00019     0.00009
 PY  O  27   0.00075     0.00011     0.00018     0.00000     0.00009     0.00004
 PZ  O  27   0.00220     0.00016     0.00005     0.00000    -0.00024     0.00002
  
  S  H  28   0.01120    -0.00025     0.00043     0.00000    -0.00084    -0.00011
  
  S  H  29   0.00402    -0.00029     0.00029     0.00000    -0.00018    -0.00016
  
  S  O  30   0.00013     0.00000    -0.00006    -0.00000     0.00011    -0.00000
 PX  O  30   0.00003     0.00000    -0.00001     0.00000    -0.00001     0.00000
 PY  O  30  -0.00007    -0.00000     0.00004     0.00000    -0.00007     0.00000
 PZ  O  30   0.00008     0.00000    -0.00005    -0.00000     0.00008    -0.00000
  
  S  H  31  -0.00026    -0.00000     0.00015     0.00000    -0.00023     0.00001
  
  S  H  32  -0.00030    -0.00000     0.00017     0.00001    -0.00035     0.00001
  
  S  O  33   0.00182     0.00001    -0.00065    -0.00000     0.00100     0.00000
 PX  O  33   0.00060     0.00000    -0.00024     0.00000     0.00044     0.00001
 PY  O  33  -0.00304    -0.00000     0.00109    -0.00000    -0.00162    -0.00000
 PZ  O  33   0.00042     0.00000    -0.00060     0.00000     0.00091     0.00000
  
  S  H  34  -0.00604    -0.00001     0.00235     0.00000    -0.00383    -0.00000
  
  S  H  35  -0.00500    -0.00001     0.00135     0.00000    -0.00151    -0.00000
  
  S  O  36   0.00045     0.00000     0.00020    -0.00000    -0.00015     0.00000
 PX  O  36  -0.00086    -0.00000    -0.00042     0.00000     0.00029    -0.00001
 PY  O  36  -0.00048    -0.00000    -0.00025     0.00000     0.00015    -0.00000
 PZ  O  36   0.00045     0.00000     0.00022    -0.00000    -0.00015     0.00000
  
  S  H  37  -0.00214    -0.00001    -0.00091     0.00000     0.00079    -0.00001
  
  S  H  38  -0.00036    -0.00000    -0.00014    -0.00000     0.00016    -0.00000
  
  S  O  39   0.00000     0.00003    -0.00001    -0.00001    -0.00003    -0.00084
 PX  O  39   0.00000     0.00007    -0.00003    -0.00002    -0.00005    -0.00211
 PY  O  39  -0.00000     0.00001    -0.00000     0.00001     0.00000    -0.00039
 PZ  O  39   0.00000     0.00003    -0.00001    -0.00001    -0.00003    -0.00104
  
  S  H  40  -0.00001    -0.00002     0.00001     0.00003     0.00006     0.00052
  
  S  H  41  -0.00002    -0.00009     0.00005     0.00003     0.00016     0.00300
  
  S  O  42   0.00003     0.00002    -0.00004    -0.00001    -0.00005     0.00133
 PX  O  42  -0.00000    -0.00001     0.00000    -0.00000     0.00000     0.00006
 PY  O  42   0.00008     0.00006    -0.00010    -0.00001    -0.00011     0.00370
 PZ  O  42  -0.00003    -0.00002     0.00003     0.00001     0.00004    -0.00107
  
  S  H  43  -0.00003    -0.00001     0.00004     0.00001     0.00004    -0.00078
  
  S  H  44  -0.00010    -0.00005     0.00014     0.00001     0.00016    -0.00437
  
  S  O  45   0.00373     0.00001     0.00127    -0.00001    -0.00079     0.00001
 PX  O  45  -0.00067    -0.00000    -0.00039     0.00000     0.00009    -0.00001
 PY  O  45  -0.00549    -0.00001    -0.00193     0.00001     0.00107    -0.00002
 PZ  O  45   0.00325     0.00001     0.00154    -0.00001    -0.00061     0.00001
  
  S  H  46  -0.00504    -0.00001    -0.00162     0.00001     0.00153    -0.00002
  
  S  H  47  -0.01800    -0.00002    -0.00482     0.00001     0.00360    -0.00003
  
  S  O  48  -0.00025     0.00159    -0.00031    -0.00000    -0.00007    -0.00023
 PX  O  48  -0.00021    -0.48614    -0.00028    -0.00000    -0.00005    -0.00048
 PY  O  48  -0.00005     0.83145    -0.00008     0.00000    -0.00001    -0.00021
 PZ  O  48   0.00056     0.26669     0.00065     0.00000     0.00015    -0.00022
  
  S  H  49   0.00069     0.00081     0.00088     0.00000     0.00020     0.00016
  
  S  H  50   0.00040     0.00011     0.00051     0.00000     0.00007     0.00109
  
  S  O  51  -0.00004     0.00000     0.00002    -0.00000    -0.00004    -0.00000
 PX  O  51   0.00002     0.00001     0.00002    -0.00000    -0.00004    -0.00000
 PY  O  51  -0.00023     0.00001     0.00006     0.00000    -0.00009     0.00000
 PZ  O  51   0.00003     0.00000     0.00000    -0.00000    -0.00002     0.00000
  
  S  H  52   0.00033    -0.00000    -0.00011     0.00000     0.00011     0.00000
  
  S  H  53  -0.00010    -0.00001    -0.00000     0.00000     0.00011     0.00001
  
  S  O  54   0.00048     0.00001     0.00013    -0.00000    -0.00013     0.00001
 PX  O  54   0.00082     0.00000     0.00027    -0.00000    -0.00018     0.00001
 PY  O  54  -0.00119     0.00000    -0.00034     0.00000     0.00023    -0.00001
 PZ  O  54   0.00031     0.00001     0.00000    -0.00000    -0.00005     0.00000
  
  S  H  55   0.00024    -0.00001    -0.00006     0.00000     0.00005    -0.00001
  
  S  H  56  -0.00325    -0.00002    -0.00056     0.00001     0.00071    -0.00002
  
  S  O  57  -0.00007     0.00000     0.00002    -0.00000    -0.00000     0.00000
 PX  O  57  -0.00011     0.00001     0.00004    -0.00000    -0.00002     0.00001
 PY  O  57  -0.00001    -0.00000     0.00000     0.00000    -0.00001    -0.00000
 PZ  O  57  -0.00007     0.00001     0.00002    -0.00000    -0.00002     0.00000
  
  S  H  58   0.00046    -0.00001    -0.00010     0.00000     0.00002    -0.00001
  
  S  H  59   0.00004    -0.00000    -0.00001     0.00000    -0.00001    -0.00000
  
  S  O  60  -0.00005     0.00000     0.00013    -0.00194     0.00050     0.00019
 PX  O  60  -0.00006     0.00001     0.00019    -0.31533     0.00034     0.00027
 PY  O  60   0.00005     0.00000    -0.00000     0.85268    -0.00039     0.00001
 PZ  O  60   0.00011    -0.00001    -0.00030    -0.41635    -0.00069    -0.00027
  
  S  H  61   0.00016    -0.00000    -0.00013     0.00003    -0.00198    -0.00031
  
  S  H  62   0.00032    -0.00001    -0.00063    -0.00003    -0.00166    -0.00060
  
  S  O  63  -0.00000     0.00046    -0.00004     0.00000    -0.00002    -0.00063
 PX  O  63   0.00000     0.00039    -0.00004     0.00000    -0.00002    -0.00062
 PY  O  63  -0.00000    -0.00102     0.00007    -0.00000     0.00003     0.00104
 PZ  O  63   0.00001    -0.00045     0.00004    -0.00000     0.00002     0.00045
  
  S  H  64  -0.00002    -0.00230     0.00013    -0.00001     0.00006     0.00301
  
  S  H  65   0.00001     0.00012     0.00004    -0.00000     0.00001     0.00039
  
  S  O  66  -0.00036     0.00125    -0.00137     0.00000     0.00014     0.00015
 PX  O  66  -0.00007     0.00018    -0.00029     0.00000     0.00011     0.00000
 PY  O  66   0.00078    -0.00234     0.00248    -0.00000    -0.00022    -0.00029
 PZ  O  66   0.00001     0.00025    -0.00044    -0.00000    -0.00004     0.00003
  
  S  H  67   0.00096    -0.00420     0.00680    -0.00000    -0.00064    -0.00055
  
  S  H  68   0.00063    -0.00155     0.00172    -0.00000    -0.00036    -0.00016
  
  S  O  69  -0.00178     0.00011     0.00044    -0.00000    -0.00089     0.00005
 PX  O  69  -0.00219     0.00027     0.00031    -0.00000    -0.00089     0.00010
 PY  O  69   0.00082     0.00006    -0.00072     0.00000     0.00097     0.00002
 PZ  O  69   0.00205    -0.00013    -0.00055     0.00000     0.00115    -0.00005
  
  S  H  70   0.00660    -0.00030    -0.00111     0.00000     0.00200    -0.00017
  
  S  H  71   0.00417    -0.00010    -0.00157     0.00001     0.00285    -0.00004
  
  S  H  72   0.00008    -0.00012    -0.00023    -0.00002     0.00006    -0.00310
  
  S  H  73  -0.00069    -0.00028     0.00230    -0.00050     0.00077    -0.01090




    ROOT NO.   97

           -10.99848
  
  
  S  C   1  -0.00257
 PX  C   1   0.00023
 PY  C   1   0.00215
 PZ  C   1  -0.00243
  
  S  O   2   0.00146
 PX  O   2   0.00036
 PY  O   2   0.00209
 PZ  O   2  -0.00165
  
  S  N   3   0.00017
 PX  N   3  -0.00018
 PY  N   3   0.00002
 PZ  N   3   0.00024
  
  S  H   4  -0.00042
  
  S  C   5  -0.00002
 PX  C   5  -0.00005
 PY  C   5   0.00008
 PZ  C   5  -0.00015
  
  S  H   6   0.00021
  
  S  C   7   0.00022
 PX  C   7  -0.00024
 PY  C   7  -0.00019
 PZ  C   7   0.00015
  
  S  H   8   0.00000
  
  S  H   9  -0.00050
  
  S  C  10  -0.00001
 PX  C  10  -0.00002
 PY  C  10  -0.00001
 PZ  C  10  -0.00001
  
  S  C  11   0.00002
 PX  C  11  -0.00005
 PY  C  11  -0.00003
 PZ  C  11   0.00003
  
  S  H  12  -0.00005
  
  S  C  13  -0.00000
 PX  C  13  -0.00000
 PY  C  13   0.00000
 PZ  C  13  -0.00000
  
  S  H  14  -0.00000
  
  S  C  15   0.00000
 PX  C  15  -0.00000
 PY  C  15  -0.00001
 PZ  C  15   0.00000
  
  S  H  16  -0.00000
  
  S  C  17   0.00003
 PX  C  17  -0.00002
 PY  C  17  -0.00001
 PZ  C  17   0.00002
  
  S  H  18   0.00000
  
  S  C  19  -0.00000
 PX  C  19  -0.00000
 PY  C  19   0.00000
 PZ  C  19  -0.00000
  
  S  H  20   0.00000
  
  S  O  21   0.00001
 PX  O  21   0.00001
 PY  O  21   0.00000
 PZ  O  21   0.00000
  
  S  H  22  -0.00002
  
  S  H  23  -0.00002
  
  S  O  24   0.00000
 PX  O  24  -0.00000
 PY  O  24   0.00000
 PZ  O  24   0.00000
  
  S  H  25  -0.00000
  
  S  H  26  -0.00000
  
  S  O  27   0.00000
 PX  O  27   0.00000
 PY  O  27   0.00000
 PZ  O  27   0.00000
  
  S  H  28  -0.00000
  
  S  H  29  -0.00000
  
  S  O  30   0.00000
 PX  O  30  -0.00000
 PY  O  30   0.00000
 PZ  O  30   0.00000
  
  S  H  31  -0.00000
  
  S  H  32  -0.00000
  
  S  O  33   0.00000
 PX  O  33   0.00000
 PY  O  33  -0.00000
 PZ  O  33   0.00000
  
  S  H  34  -0.00000
  
  S  H  35  -0.00000
  
  S  O  36  -0.00000
 PX  O  36   0.00000
 PY  O  36   0.00000
 PZ  O  36  -0.00000
  
  S  H  37   0.00000
  
  S  H  38   0.00000
  
  S  O  39   0.00347
 PX  O  39   0.00641
 PY  O  39   0.00050
 PZ  O  39   0.00306
  
  S  H  40  -0.00318
  
  S  H  41  -0.01493
  
  S  O  42   0.00001
 PX  O  42   0.60957
 PY  O  42   0.23940
 PZ  O  42   0.75551
  
  S  H  43   0.00012
  
  S  H  44   0.00032
  
  S  O  45  -0.00000
 PX  O  45  -0.00000
 PY  O  45   0.00000
 PZ  O  45  -0.00000
  
  S  H  46   0.00000
  
  S  H  47   0.00000
  
  S  O  48   0.00000
 PX  O  48   0.00001
 PY  O  48  -0.00000
 PZ  O  48  -0.00000
  
  S  H  49  -0.00000
  
  S  H  50  -0.00000
  
  S  O  51   0.00000
 PX  O  51   0.00000
 PY  O  51  -0.00000
 PZ  O  51   0.00000
  
  S  H  52  -0.00000
  
  S  H  53  -0.00000
  
  S  O  54   0.00000
 PX  O  54  -0.00000
 PY  O  54   0.00000
 PZ  O  54   0.00000
  
  S  H  55  -0.00000
  
  S  H  56  -0.00000
  
  S  O  57   0.00000
 PX  O  57   0.00000
 PY  O  57  -0.00000
 PZ  O  57   0.00000
  
  S  H  58  -0.00000
  
  S  H  59  -0.00000
  
  S  O  60   0.00001
 PX  O  60   0.00000
 PY  O  60   0.00000
 PZ  O  60  -0.00001
  
  S  H  61  -0.00002
  
  S  H  62  -0.00001
  
  S  O  63   0.00000
 PX  O  63   0.00000
 PY  O  63  -0.00000
 PZ  O  63  -0.00000
  
  S  H  64  -0.00000
  
  S  H  65  -0.00000
  
  S  O  66   0.00000
 PX  O  66  -0.00000
 PY  O  66  -0.00001
 PZ  O  66   0.00000
  
  S  H  67  -0.00001
  
  S  H  68  -0.00000
  
  S  O  69   0.00000
 PX  O  69   0.00000
 PY  O  69   0.00000
 PZ  O  69  -0.00000
  
  S  H  70  -0.00000
  
  S  H  71  -0.00000
  
  S  H  72   0.00048
  
  S  H  73   0.00000

          BONDING CONTRIBUTION OF EACH M.O.

  1.9333  1.6798  1.7847  1.7565  1.7842  1.7340  1.7098  1.6983  1.6126  1.7054
  1.6605  1.6905  0.0032  1.6742  1.6228  0.0607  1.7239  1.7196  1.6733  1.6478
  0.0188  1.6178  0.0799  0.0680  1.6625  0.0078  0.0014  0.0444  1.6607  1.5921
  1.7459  1.7049  1.7102  1.9985  1.9993  1.7043  0.0008  1.9924  1.6681  1.9971
  0.0614  1.6921  1.9968  0.0013  1.9917  0.0047  1.6515  1.7405  1.6561  1.6319
  1.7594  0.0001  0.0004  0.0014  0.0007  1.5886  1.7156  1.9384  1.6770  0.0002
  1.6697  1.6474  1.9876  0.0007  1.9603  1.9479  1.9550  1.9420  1.9425  1.9899
  1.9308  1.9615  1.9431  1.9358  1.3172  0.1073  0.0791  0.0162  0.0667  0.0216
  0.0040  0.0003  0.0161  0.4084  0.0039  0.0084  0.0002  0.0029  0.0060  0.0000
  1.9525  0.0079  1.9988  0.0010  2.0326  0.8397  0.0021 -2.0286 -1.9724 -2.0972
 -1.7557 -1.9874 -1.7353 -1.9864 -1.7421 -1.7275 -1.7261 -1.7209 -1.7661 -1.9033
 -1.7544 -1.8372 -1.7848 -1.7144 -1.9423 -1.9836 -1.6821 -1.8037 -1.7392 -1.9650
 -1.9590 -1.7440 -1.9973 -1.9533 -1.9133 -1.7262 -1.6938 -1.7355 -1.8973 -1.7296
 -1.7014 -1.9058 -1.8804 -1.7262 -1.6968 -1.9177 -1.8760 -1.7879 -1.8005 -1.9007
 -1.6843 -1.9312 -1.9573 -1.8061 -1.7000 -1.8505 -1.7038 -1.7177 -1.7065 -1.8653
 -1.6831 -1.6552 -1.9098 -1.6884 -1.7096 -1.8082 -1.6918

           DATA FOR GRAPH WRITTEN TO DISK

 **********************
 *                    *
 * JOB ENDED NORMALLY *
 *                    *
 **********************



 TOTAL JOB TIME:             0.92 SECONDS

 == MOPAC DONE ==
