 *******************************************************************************
 ** Site#: 34139        For non-commercial use only    Version 20.015L 64BITS **
 *******************************************************************************
 ** Cite this program as: MOPAC2016, Version: 20.015L, James J. P. Stewart,   **
 ** Stewart Computational Chemistry, web: HTTP://OpenMOPAC.net. Days left: 254**
 *******************************************************************************
 **                                                                           **
 **                                MOPAC2016                                  **
 **                                                                           **
 *******************************************************************************

                              PM7 CALCULATION RESULTS

 *******************************************************************************
 *  CALCULATION DONE:                                Wed May  6 10:12:42 2020  *
 *  PM7        - The PM7 Hamiltonian to be used
 *  QMMM       - Generate energies and gradients for use in MM codes
 *  DIPOLE     - PRINT DIPOLE INSTEAD OF ENERGY IN TRAJECTORIES
 *  GEO-OK     - OVERRIDE INTERATOMIC DISTANCE AND OTHER SAFETY CHECKS
 *
 *
 *
 *                 CHARGE ON SYSTEM = 0
 *
 *
 *
 *  LET        - OVERRIDE SOME SAFETY CHECKS
 *  XYZ        - CARTESIAN COORDINATE SYSTEM TO BE USED
 *  FORCE      - FORCE CALCULATION SPECIFIED
 *  1SCF       - DO 1 SCF AND THEN STOP 
 *  T=         - A TIME OF      2.0 MINUTES REQUESTED
 *  DUMP=N     - RESTART FILE WRITTEN EVERY  7200.000 SECONDS
 *  CUTOFF=    - CUTOFF FOR NDDO AND DIPOLE INTERACTIONS =  9.00A
 *  AUX        - OUTPUT AUXILIARY INFORMATION
 *  GRADIENTS  - ALL GRADIENTS TO BE PRINTED
 *  VECTORS    - FINAL EIGENVECTORS TO BE PRINTED
 *  EIGEN      - CONVERT LMO's INTO EIGENVECTORS
 *  LARGE      - EXPANDED OUTPUT TO BE PRINTED
 *  AIGOUT     - IN ARC FILE, INCLUDE AB-INITIO GEOMETRY
 *  GRAPH      - GENERATE FILE FOR GRAPHICS
 *  LOCALIZE   - LOCALIZED ORBITALS TO BE PRINTED
 *  PI         - BONDS MATRIX, SPLIT INTO SIGMA-PI-DELL COMPONENTS, TO BE PRINTED
 *******************************************************************************
PM7 XYZ T=2M 1SCF LOCALIZE AIGOUT GRAPH GRAPHF LARGE DIPOLE PI FORCE CUTOFF=9.0 AUX LET GRAD QMMM GEO-OK EIGEN VECTORS CHARGE=0
 Test System

   ATOM   CHEMICAL          X               Y               Z
  NUMBER   SYMBOL      (ANGSTROMS)     (ANGSTROMS)     (ANGSTROMS)
 
     1       C          0.45689100  *  -5.72337200  *   1.33992200  *
     2       O          0.41140600  *  -6.80426300  *   1.94172200  *
     3       N          1.65671800  *  -5.20038100  *   0.99986200  *
     4       H          1.67185600  *  -4.21333900  *   0.68725600  *
     5       C          2.99620500  *  -5.77732200  *   1.26512900  *
     6       H          3.20590400  *  -5.87762400  *   2.35920900  *
     7       C          2.97061700  *  -7.14826400  *   0.52916200  *
     8       H          1.90157000  *  -7.47353300  *   0.49844900  *
     9       H          3.16979200  *  -7.07873200  *  -0.54529200  *
    10       C          3.70151900  *  -8.19891300  *   1.20037300  *
    11       C          3.06495800  *  -9.53156800  *   1.24979900  *
    12       H          2.05589400  *  -9.68479100  *   0.90870700  *
    13       C          3.71907200  * -10.60553300  *   1.74346700  *
    14       H          3.24855700  * -11.59444300  *   1.84168700  *
    15       C          5.01102400  * -10.46267400  *   2.26427600  *
    16       H          5.46493000  * -11.35264400  *   2.76458300  *
    17       C          5.01534300  *  -8.13032600  *   1.61738900  *
    18       H          5.47949300  *  -7.14577900  *   1.56139100  *
    19       C          5.66520500  *  -9.23384900  *   2.12281000  *
    20       H          6.74226500  *  -9.19018700  *   2.43972400  *
    21       O          2.25080900  *  -0.35800300  *  -0.15852600  *
    22       H          1.29137100  *  -0.63962900  *  -0.01649100  *
    23       H          2.68564200  *  -0.95801800  *   0.46430200  *
    24       O          1.93223500  *  -7.49999400  *   3.88501000  *
    25       H          1.17081400  *  -7.04994200  *   4.33461800  *
    26       H          1.76616500  *  -7.31698500  *   2.87890200  *
    27       O          9.99634500  *  -4.76296100  *   0.10158800  *
    28       H          9.21477200  *  -4.14505800  *   0.03698800  *
    29       H         10.70946000  *  -4.11068100  *  -0.09732700  *
    30       O          4.84550100  *  -6.04927800  *   6.86523700  *
    31       H          4.30051400  *  -6.69485100  *   6.41816600  *
    32       H          4.78897000  *  -5.24819000  *   6.22226100  *
    33       O          7.68573600  *  -6.95343100  *   1.13729900  *
    34       H          7.96914700  *  -6.00156500  *   1.26701000  *
    35       H          6.95839700  *  -6.94277800  *   0.58902700  *
    36       O          6.35190800  *  -6.78091200  *  -1.15137900  *
    37       H          6.83258000  *  -6.00125600  *  -1.65012500  *
    38       H          5.41898800  *  -6.34987100  *  -1.04097200  *
    39       O         -0.63270800  *  -6.36404900  *  -2.83921000  *
    40       H         -1.21423900  *  -5.88690400  *  -2.14344300  *
    41       H         -0.76320700  *  -5.70180500  *  -3.57780100  *
    42       O          3.66454600  *  -7.15931200  *  -3.58832500  *
    43       H          2.90100300  *  -6.84996100  *  -3.00809500  *
    44       H          3.67427100  *  -6.33655500  *  -4.18820600  *
    45       O          4.38503000  *  -7.89305000  *   4.53561800  *
    46       H          3.41546000  *  -7.71124300  *   4.38224900  *
    47       H          4.88061400  *  -7.39071000  *   3.86824500  *
    48       O          4.75054300  *  -4.03416800  *   5.22420200  *
    49       H          4.55984000  *  -3.05715600  *   5.48863800  *
    50       H          3.99563400  *  -4.18515900  *   4.57865600  *
    51       O          1.85350100  *  -6.03721900  *  -2.01243700  *
    52       H          0.97166700  *  -6.08758000  *  -2.25384700  *
    53       H          2.02060000  *  -5.04787200  *  -1.89969800  *
    54       O          2.14703600  *  -2.94072500  *  -2.41177400  *
    55       H          1.71827000  *  -2.83194400  *  -1.51579600  *
    56       H          1.47375500  *  -2.58088100  *  -2.98768400  *
    57       O          2.84815800  *  -4.16436700  *   3.44000000  *
    58       H          2.94761700  *  -3.31215100  *   2.80263300  *
    59       H          2.04247000  *  -3.81160500  *   3.89803500  *
    60       O          8.00401000  *  -8.08086900  *   3.38973200  *
    61       H          7.52596300  *  -7.32369300  *   3.82830000  *
    62       H          7.87474300  *  -7.98273500  *   2.42874400  *
    63       O          0.92005500  *  -9.96192600  *   4.21741200  *
    64       H          0.19857800  *  -9.72618900  *   4.84349800  *
    65       H          1.31795400  *  -9.02819100  *   4.01131500  *
    66       O          7.01622300  *  -5.75041400  *   4.19578500  *
    67       H          7.30884900  *  -5.12721100  *   3.42533800  *
    68       H          6.37090000  *  -5.21157500  *   4.67569600  *
    69       H         -0.44836000  *  -5.15972600  *   1.11425800  *
    70       H          3.69979000  *  -5.08796500  *   0.79838000  *
 


          CARTESIAN COORDINATES 

    NO.       ATOM           X           Y           Z

     1         C          0.4569     -5.7234      1.3399
     2         O          0.4114     -6.8043      1.9417
     3         N          1.6567     -5.2004      0.9999
     4         H          1.6719     -4.2133      0.6873
     5         C          2.9962     -5.7773      1.2651
     6         H          3.2059     -5.8776      2.3592
     7         C          2.9706     -7.1483      0.5292
     8         H          1.9016     -7.4735      0.4984
     9         H          3.1698     -7.0787     -0.5453
    10         C          3.7015     -8.1989      1.2004
    11         C          3.0650     -9.5316      1.2498
    12         H          2.0559     -9.6848      0.9087
    13         C          3.7191    -10.6055      1.7435
    14         H          3.2486    -11.5944      1.8417
    15         C          5.0110    -10.4627      2.2643
    16         H          5.4649    -11.3526      2.7646
    17         C          5.0153     -8.1303      1.6174
    18         H          5.4795     -7.1458      1.5614
    19         C          5.6652     -9.2338      2.1228
    20         H          6.7423     -9.1902      2.4397
    21         O          2.2508     -0.3580     -0.1585
    22         H          1.2914     -0.6396     -0.0165
    23         H          2.6856     -0.9580      0.4643
    24         O          1.9322     -7.5000      3.8850
    25         H          1.1708     -7.0499      4.3346
    26         H          1.7662     -7.3170      2.8789
    27         O          9.9963     -4.7630      0.1016
    28         H          9.2148     -4.1451      0.0370
    29         H         10.7095     -4.1107     -0.0973
    30         O          4.8455     -6.0493      6.8652
    31         H          4.3005     -6.6949      6.4182
    32         H          4.7890     -5.2482      6.2223
    33         O          7.6857     -6.9534      1.1373
    34         H          7.9691     -6.0016      1.2670
    35         H          6.9584     -6.9428      0.5890
    36         O          6.3519     -6.7809     -1.1514
    37         H          6.8326     -6.0013     -1.6501
    38         H          5.4190     -6.3499     -1.0410
    39         O         -0.6327     -6.3640     -2.8392
    40         H         -1.2142     -5.8869     -2.1434
    41         H         -0.7632     -5.7018     -3.5778
    42         O          3.6645     -7.1593     -3.5883
    43         H          2.9010     -6.8500     -3.0081
    44         H          3.6743     -6.3366     -4.1882
    45         O          4.3850     -7.8930      4.5356
    46         H          3.4155     -7.7112      4.3822
    47         H          4.8806     -7.3907      3.8682
    48         O          4.7505     -4.0342      5.2242
    49         H          4.5598     -3.0572      5.4886
    50         H          3.9956     -4.1852      4.5787
    51         O          1.8535     -6.0372     -2.0124
    52         H          0.9717     -6.0876     -2.2538
    53         H          2.0206     -5.0479     -1.8997
    54         O          2.1470     -2.9407     -2.4118
    55         H          1.7183     -2.8319     -1.5158
    56         H          1.4738     -2.5809     -2.9877
    57         O          2.8482     -4.1644      3.4400
    58         H          2.9476     -3.3122      2.8026
    59         H          2.0425     -3.8116      3.8980
    60         O          8.0040     -8.0809      3.3897
    61         H          7.5260     -7.3237      3.8283
    62         H          7.8747     -7.9827      2.4287
    63         O          0.9201     -9.9619      4.2174
    64         H          0.1986     -9.7262      4.8435
    65         H          1.3180     -9.0282      4.0113
    66         O          7.0162     -5.7504      4.1958
    67         H          7.3088     -5.1272      3.4253
    68         H          6.3709     -5.2116      4.6757
    69         H         -0.4484     -5.1597      1.1143
    70         H          3.6998     -5.0880      0.7984

 General Reference for PM7:
 "Optimization of Parameters for Semiempirical Methods VI: More Modifications to the 
 NDDO Approximations and Re-optimization of Parameters", J. J. P. Stewart, J. Mol. Mod., 1:32, 19 (2013)
 http://www.springerlink.com/openurl.asp?genre=article&id=doi:10.1007/s00894-012-1667-x

           Empirical Formula: C9 H43 N O17  =    70 atoms



      MOLECULAR POINT GROUP   :   C1  


      RHF CALCULATION, NO. OF DOUBLY OCCUPIED LEVELS = 93


 -------------------------------------------------------------------------------
 PM7 XYZ T=2M 1SCF LOCALIZE AIGOUT GRAPH GRAPHF LARGE DIPOLE PI FORCE CUTOFF=9.0 AUX LET GRAD QMMM GEO-OK EIGEN VECTORS CHARGE=0
 Test System



     1SCF WAS SPECIFIED, SO BFGS WAS NOT USED                 
     SCF FIELD WAS ACHIEVED                                   


                              PM7 CALCULATION
                                                       MOPAC2016 (Version: 20.015L)
                                                       Wed May  6 10:12:43 2020
                                                       No. of days remaining = 254




          FINAL HEAT OF FORMATION =      -1341.96820 KCAL/MOL =   -5614.79495 KJ/MOL


          TOTAL ENERGY            =      -6912.04349 EV
          ELECTRONIC ENERGY       =     -56011.98627 EV  POINT GROUP:     C1  
          CORE-CORE REPULSION     =      49099.94278 EV
          COSMO AREA              =        501.59 SQUARE ANGSTROMS
          COSMO VOLUME            =        641.66 CUBIC ANGSTROMS

          GRADIENT NORM           =        333.38113 = 39.84667 PER ATOM
          IONIZATION POTENTIAL    =          8.282615 EV
          HOMO LUMO ENERGIES (EV) =         -8.283  0.979
          NO. OF FILLED LEVELS    =         93
          MOLECULAR WEIGHT        =        437.4352

          MOLECULAR DIMENSIONS (Angstroms)

            Atom       Atom       Distance
            H    64    H    29    12.90056
            O    30    H    41    11.85158
            H    16    H    22    10.54752


          SCF CALCULATIONS        =          1
 
          WALL-CLOCK TIME         =          0.887 SECONDS
          COMPUTATION TIME        =          1.483 SECONDS

          LARGEST ATOMIC GRADIENTS

          Atom     Label                     Cartesian Gradients           Cartesian Coordinates       |Gradient|
                                           X          Y          Z        X          Y          Z

            10       C                   8.154     94.255      2.932    3.70152   -8.19891    1.20037     94.652
            57       O                  20.149    -77.640     32.123    2.84816   -4.16437    3.44000     86.405
            36       O                  25.702    -76.322     13.519    6.35191   -6.78091   -1.15138     81.660
            11       C                  -4.549    -71.429     13.427    3.06496   -9.53157    1.24980     72.822
            66       O                  -4.306    -53.365     34.670    7.01622   -5.75041    4.19578     63.784
            39       O                  31.779    -52.563    -12.735   -0.63271   -6.36405   -2.83921     62.729
            51       O                 -33.095    -48.005    -16.035    1.85350   -6.03722   -2.01244     60.472
            42       O                  18.176    -53.054     19.155    3.66455   -7.15931   -3.58833     59.263
            48       O                  22.873    -52.961     12.121    4.75054   -4.03417    5.22420     58.949
            58       H                 -10.309     48.489    -27.794    2.94762   -3.31215    2.80263     56.833
            21       O                  35.530     36.233    -22.569    2.25081   -0.35800   -0.15853     55.539
             3       N                  -6.042    -53.672      3.403    1.65672   -5.20038    0.99986     54.118
            19       C                 -19.307     44.568    -19.654    5.66521   -9.23385    2.12281     52.396
            33       O                 -21.557    -42.696    -18.286    7.68574   -6.95343    1.13730     51.206
            27       O                  12.918    -48.370      8.247    9.99634   -4.76296    0.10159     50.740
             1       C                  -8.464     38.695    -30.019    0.45689   -5.72337    1.33992     49.700



       FINAL  POINT  AND  DERIVATIVES

   PARAMETER     ATOM    TYPE            VALUE        GRADIENT
      1          1  C    CARTESIAN X     0.456891     -8.464078  KCAL/ANGSTROM
      2          1  C    CARTESIAN Y    -5.723372     38.694956  KCAL/ANGSTROM
      3          1  C    CARTESIAN Z     1.339922    -30.018969  KCAL/ANGSTROM
      4          2  O    CARTESIAN X     0.411406     10.427249  KCAL/ANGSTROM
      5          2  O    CARTESIAN Y    -6.804263    -20.437581  KCAL/ANGSTROM
      6          2  O    CARTESIAN Z     1.941722      9.093390  KCAL/ANGSTROM
      7          3  N    CARTESIAN X     1.656718     -6.042470  KCAL/ANGSTROM
      8          3  N    CARTESIAN Y    -5.200381    -53.672142  KCAL/ANGSTROM
      9          3  N    CARTESIAN Z     0.999862      3.403026  KCAL/ANGSTROM
     10          4  H    CARTESIAN X     1.671856     -6.765960  KCAL/ANGSTROM
     11          4  H    CARTESIAN Y    -4.213339     12.978114  KCAL/ANGSTROM
     12          4  H    CARTESIAN Z     0.687256      1.067634  KCAL/ANGSTROM
     13          5  C    CARTESIAN X     2.996205     32.275931  KCAL/ANGSTROM
     14          5  C    CARTESIAN Y    -5.777322     11.381017  KCAL/ANGSTROM
     15          5  C    CARTESIAN Z     1.265129     15.173188  KCAL/ANGSTROM
     16          6  H    CARTESIAN X     3.205904     -0.094484  KCAL/ANGSTROM
     17          6  H    CARTESIAN Y    -5.877624      7.642247  KCAL/ANGSTROM
     18          6  H    CARTESIAN Z     2.359209      6.335878  KCAL/ANGSTROM
     19          7  C    CARTESIAN X     2.970617     21.384761  KCAL/ANGSTROM
     20          7  C    CARTESIAN Y    -7.148264    -28.483845  KCAL/ANGSTROM
     21          7  C    CARTESIAN Z     0.529162    -11.561883  KCAL/ANGSTROM
     22          8  H    CARTESIAN X     1.901570      6.928969  KCAL/ANGSTROM
     23          8  H    CARTESIAN Y    -7.473533      7.012298  KCAL/ANGSTROM
     24          8  H    CARTESIAN Z     0.498449      6.959651  KCAL/ANGSTROM
     25          9  H    CARTESIAN X     3.169792    -11.940612  KCAL/ANGSTROM
     26          9  H    CARTESIAN Y    -7.078732      0.012399  KCAL/ANGSTROM
     27          9  H    CARTESIAN Z    -0.545292      5.898990  KCAL/ANGSTROM
     28         10  C    CARTESIAN X     3.701519      8.153614  KCAL/ANGSTROM
     29         10  C    CARTESIAN Y    -8.198913     94.254672  KCAL/ANGSTROM
     30         10  C    CARTESIAN Z     1.200373      2.932496  KCAL/ANGSTROM
     31         11  C    CARTESIAN X     3.064958     -4.549458  KCAL/ANGSTROM
     32         11  C    CARTESIAN Y    -9.531568    -71.429156  KCAL/ANGSTROM
     33         11  C    CARTESIAN Z     1.249799     13.426997  KCAL/ANGSTROM
     34         12  H    CARTESIAN X     2.055894      7.847144  KCAL/ANGSTROM
     35         12  H    CARTESIAN Y    -9.684791     -8.593850  KCAL/ANGSTROM
     36         12  H    CARTESIAN Z     0.908707      5.380614  KCAL/ANGSTROM
     37         13  C    CARTESIAN X     3.719072    -16.315396  KCAL/ANGSTROM
     38         13  C    CARTESIAN Y   -10.605533     28.188536  KCAL/ANGSTROM
     39         13  C    CARTESIAN Z     1.743467    -26.259981  KCAL/ANGSTROM
     40         14  H    CARTESIAN X     3.248557      1.294269  KCAL/ANGSTROM
     41         14  H    CARTESIAN Y   -11.594443     -4.481317  KCAL/ANGSTROM
     42         14  H    CARTESIAN Z     1.841687      3.727439  KCAL/ANGSTROM
     43         15  C    CARTESIAN X     5.011024    -18.161466  KCAL/ANGSTROM
     44         15  C    CARTESIAN Y   -10.462674     -1.434849  KCAL/ANGSTROM
     45         15  C    CARTESIAN Z     2.264276      1.560411  KCAL/ANGSTROM
     46         16  H    CARTESIAN X     5.464930     -0.424116  KCAL/ANGSTROM
     47         16  H    CARTESIAN Y   -11.352644    -20.057203  KCAL/ANGSTROM
     48         16  H    CARTESIAN Z     2.764583      8.393764  KCAL/ANGSTROM
     49         17  C    CARTESIAN X     5.015343     16.775663  KCAL/ANGSTROM
     50         17  C    CARTESIAN Y    -8.130326    -32.124674  KCAL/ANGSTROM
     51         17  C    CARTESIAN Z     1.617389      5.846168  KCAL/ANGSTROM
     52         18  H    CARTESIAN X     5.479493     -9.022900  KCAL/ANGSTROM
     53         18  H    CARTESIAN Y    -7.145779      4.516832  KCAL/ANGSTROM
     54         18  H    CARTESIAN Z     1.561391     -2.350060  KCAL/ANGSTROM
     55         19  C    CARTESIAN X     5.665205    -19.306886  KCAL/ANGSTROM
     56         19  C    CARTESIAN Y    -9.233849     44.568102  KCAL/ANGSTROM
     57         19  C    CARTESIAN Z     2.122810    -19.653745  KCAL/ANGSTROM
     58         20  H    CARTESIAN X     6.742265     20.898884  KCAL/ANGSTROM
     59         20  H    CARTESIAN Y    -9.190187      2.097430  KCAL/ANGSTROM
     60         20  H    CARTESIAN Z     2.439724      5.016777  KCAL/ANGSTROM
     61         21  O    CARTESIAN X     2.250809     35.529891  KCAL/ANGSTROM
     62         21  O    CARTESIAN Y    -0.358003     36.233119  KCAL/ANGSTROM
     63         21  O    CARTESIAN Z    -0.158526    -22.568544  KCAL/ANGSTROM
     64         22  H    CARTESIAN X     1.291371    -19.350041  KCAL/ANGSTROM
     65         22  H    CARTESIAN Y    -0.639629    -24.451584  KCAL/ANGSTROM
     66         22  H    CARTESIAN Z    -0.016491     13.348488  KCAL/ANGSTROM
     67         23  H    CARTESIAN X     2.685642    -14.434171  KCAL/ANGSTROM
     68         23  H    CARTESIAN Y    -0.958018    -13.616286  KCAL/ANGSTROM
     69         23  H    CARTESIAN Z     0.464302      7.250849  KCAL/ANGSTROM
     70         24  O    CARTESIAN X     1.932235     32.810901  KCAL/ANGSTROM
     71         24  O    CARTESIAN Y    -7.499994    -15.669126  KCAL/ANGSTROM
     72         24  O    CARTESIAN Z     3.885010     17.973031  KCAL/ANGSTROM
     73         25  H    CARTESIAN X     1.170814    -16.224710  KCAL/ANGSTROM
     74         25  H    CARTESIAN Y    -7.049942      7.737306  KCAL/ANGSTROM
     75         25  H    CARTESIAN Z     4.334618      6.480161  KCAL/ANGSTROM
     76         26  H    CARTESIAN X     1.766165     -1.680254  KCAL/ANGSTROM
     77         26  H    CARTESIAN Y    -7.316985      8.783693  KCAL/ANGSTROM
     78         26  H    CARTESIAN Z     2.878902    -25.723790  KCAL/ANGSTROM
     79         27  O    CARTESIAN X     9.996345     12.917734  KCAL/ANGSTROM
     80         27  O    CARTESIAN Y    -4.762961    -48.369760  KCAL/ANGSTROM
     81         27  O    CARTESIAN Z     0.101588      8.246547  KCAL/ANGSTROM
     82         28  H    CARTESIAN X     9.214772    -10.649344  KCAL/ANGSTROM
     83         28  H    CARTESIAN Y    -4.145058     21.414466  KCAL/ANGSTROM
     84         28  H    CARTESIAN Z     0.036988     -1.689638  KCAL/ANGSTROM
     85         29  H    CARTESIAN X    10.709460     -0.828174  KCAL/ANGSTROM
     86         29  H    CARTESIAN Y    -4.110681     22.618620  KCAL/ANGSTROM
     87         29  H    CARTESIAN Z    -0.097327     -5.787655  KCAL/ANGSTROM
     88         30  O    CARTESIAN X     4.845501     14.964928  KCAL/ANGSTROM
     89         30  O    CARTESIAN Y    -6.049278    -25.379303  KCAL/ANGSTROM
     90         30  O    CARTESIAN Z     6.865237     15.133514  KCAL/ANGSTROM
     91         31  H    CARTESIAN X     4.300514     -9.882847  KCAL/ANGSTROM
     92         31  H    CARTESIAN Y    -6.694851     10.159634  KCAL/ANGSTROM
     93         31  H    CARTESIAN Z     6.418166     -0.133567  KCAL/ANGSTROM
     94         32  H    CARTESIAN X     4.788970     -8.259138  KCAL/ANGSTROM
     95         32  H    CARTESIAN Y    -5.248190     20.082686  KCAL/ANGSTROM
     96         32  H    CARTESIAN Z     6.222261    -21.933768  KCAL/ANGSTROM
     97         33  O    CARTESIAN X     7.685736    -21.556531  KCAL/ANGSTROM
     98         33  O    CARTESIAN Y    -6.953431    -42.695947  KCAL/ANGSTROM
     99         33  O    CARTESIAN Z     1.137299    -18.286473  KCAL/ANGSTROM
    100         34  H    CARTESIAN X     7.969147     -5.339685  KCAL/ANGSTROM
    101         34  H    CARTESIAN Y    -6.001565     31.672254  KCAL/ANGSTROM
    102         34  H    CARTESIAN Z     1.267010      2.885827  KCAL/ANGSTROM
    103         35  H    CARTESIAN X     6.958397     14.787896  KCAL/ANGSTROM
    104         35  H    CARTESIAN Y    -6.942778     12.749793  KCAL/ANGSTROM
    105         35  H    CARTESIAN Z     0.589027     27.593924  KCAL/ANGSTROM
    106         36  O    CARTESIAN X     6.351908     25.702173  KCAL/ANGSTROM
    107         36  O    CARTESIAN Y    -6.780912    -76.321869  KCAL/ANGSTROM
    108         36  O    CARTESIAN Z    -1.151379     13.518953  KCAL/ANGSTROM
    109         37  H    CARTESIAN X     6.832580     13.818749  KCAL/ANGSTROM
    110         37  H    CARTESIAN Y    -6.001256     43.865441  KCAL/ANGSTROM
    111         37  H    CARTESIAN Z    -1.650125    -18.008982  KCAL/ANGSTROM
    112         38  H    CARTESIAN X     5.418988    -33.438651  KCAL/ANGSTROM
    113         38  H    CARTESIAN Y    -6.349871     32.231068  KCAL/ANGSTROM
    114         38  H    CARTESIAN Z    -1.040972      7.302868  KCAL/ANGSTROM
    115         39  O    CARTESIAN X    -0.632708     31.778863  KCAL/ANGSTROM
    116         39  O    CARTESIAN Y    -6.364049    -52.562719  KCAL/ANGSTROM
    117         39  O    CARTESIAN Z    -2.839210    -12.735023  KCAL/ANGSTROM
    118         40  H    CARTESIAN X    -1.214239    -17.744943  KCAL/ANGSTROM
    119         40  H    CARTESIAN Y    -5.886904     28.027856  KCAL/ANGSTROM
    120         40  H    CARTESIAN Z    -2.143443     18.178218  KCAL/ANGSTROM
    121         41  H    CARTESIAN X    -0.763207     -6.001496  KCAL/ANGSTROM
    122         41  H    CARTESIAN Y    -5.701805     21.491089  KCAL/ANGSTROM
    123         41  H    CARTESIAN Z    -3.577801     -3.772072  KCAL/ANGSTROM
    124         42  O    CARTESIAN X     3.664546     18.175992  KCAL/ANGSTROM
    125         42  O    CARTESIAN Y    -7.159312    -53.054441  KCAL/ANGSTROM
    126         42  O    CARTESIAN Z    -3.588325     19.154826  KCAL/ANGSTROM
    127         43  H    CARTESIAN X     2.901003     -8.533526  KCAL/ANGSTROM
    128         43  H    CARTESIAN Y    -6.849961     14.313702  KCAL/ANGSTROM
    129         43  H    CARTESIAN Z    -3.008095     -5.801001  KCAL/ANGSTROM
    130         44  H    CARTESIAN X     3.674271    -10.225996  KCAL/ANGSTROM
    131         44  H    CARTESIAN Y    -6.336555     36.632624  KCAL/ANGSTROM
    132         44  H    CARTESIAN Z    -4.188206    -13.800287  KCAL/ANGSTROM
    133         45  O    CARTESIAN X     4.385030      7.317739  KCAL/ANGSTROM
    134         45  O    CARTESIAN Y    -7.893050    -22.753743  KCAL/ANGSTROM
    135         45  O    CARTESIAN Z     4.535618      1.872476  KCAL/ANGSTROM
    136         46  H    CARTESIAN X     3.415460    -16.030849  KCAL/ANGSTROM
    137         46  H    CARTESIAN Y    -7.711243     10.492260  KCAL/ANGSTROM
    138         46  H    CARTESIAN Z     4.382249      4.632822  KCAL/ANGSTROM
    139         47  H    CARTESIAN X     4.880614      2.279366  KCAL/ANGSTROM
    140         47  H    CARTESIAN Y    -7.390710     14.597565  KCAL/ANGSTROM
    141         47  H    CARTESIAN Z     3.868245    -13.868401  KCAL/ANGSTROM
    142         48  O    CARTESIAN X     4.750543     22.872649  KCAL/ANGSTROM
    143         48  O    CARTESIAN Y    -4.034168    -52.961432  KCAL/ANGSTROM
    144         48  O    CARTESIAN Z     5.224202     12.120714  KCAL/ANGSTROM
    145         49  H    CARTESIAN X     4.559840    -16.083915  KCAL/ANGSTROM
    146         49  H    CARTESIAN Y    -3.057156     39.414191  KCAL/ANGSTROM
    147         49  H    CARTESIAN Z     5.488638     -2.392905  KCAL/ANGSTROM
    148         50  H    CARTESIAN X     3.995634    -12.178876  KCAL/ANGSTROM
    149         50  H    CARTESIAN Y    -4.185159      9.842395  KCAL/ANGSTROM
    150         50  H    CARTESIAN Z     4.578656     -3.267557  KCAL/ANGSTROM
    151         51  O    CARTESIAN X     1.853501    -33.095382  KCAL/ANGSTROM
    152         51  O    CARTESIAN Y    -6.037219    -48.004688  KCAL/ANGSTROM
    153         51  O    CARTESIAN Z    -2.012437    -16.035068  KCAL/ANGSTROM
    154         52  H    CARTESIAN X     0.971667     30.423590  KCAL/ANGSTROM
    155         52  H    CARTESIAN Y    -6.087580     19.907817  KCAL/ANGSTROM
    156         52  H    CARTESIAN Z    -2.253847     11.763844  KCAL/ANGSTROM
    157         53  H    CARTESIAN X     2.020600     -4.586022  KCAL/ANGSTROM
    158         53  H    CARTESIAN Y    -5.047872     29.746156  KCAL/ANGSTROM
    159         53  H    CARTESIAN Z    -1.899698      9.796968  KCAL/ANGSTROM
    160         54  O    CARTESIAN X     2.147036     28.110873  KCAL/ANGSTROM
    161         54  O    CARTESIAN Y    -2.940725      5.544205  KCAL/ANGSTROM
    162         54  O    CARTESIAN Z    -2.411774    -29.276110  KCAL/ANGSTROM
    163         55  H    CARTESIAN X     1.718270    -18.657793  KCAL/ANGSTROM
    164         55  H    CARTESIAN Y    -2.831944     -2.344312  KCAL/ANGSTROM
    165         55  H    CARTESIAN Z    -1.515796     17.555516  KCAL/ANGSTROM
    166         56  H    CARTESIAN X     1.473755     -8.436521  KCAL/ANGSTROM
    167         56  H    CARTESIAN Y    -2.580881     -2.191771  KCAL/ANGSTROM
    168         56  H    CARTESIAN Z    -2.987684     11.652538  KCAL/ANGSTROM
    169         57  O    CARTESIAN X     2.848158     20.148952  KCAL/ANGSTROM
    170         57  O    CARTESIAN Y    -4.164367    -77.640237  KCAL/ANGSTROM
    171         57  O    CARTESIAN Z     3.440000     32.122900  KCAL/ANGSTROM
    172         58  H    CARTESIAN X     2.947617    -10.308590  KCAL/ANGSTROM
    173         58  H    CARTESIAN Y    -3.312151     48.489426  KCAL/ANGSTROM
    174         58  H    CARTESIAN Z     2.802633    -27.794078  KCAL/ANGSTROM
    175         59  H    CARTESIAN X     2.042470     -5.250062  KCAL/ANGSTROM
    176         59  H    CARTESIAN Y    -3.811605     20.503515  KCAL/ANGSTROM
    177         59  H    CARTESIAN Z     3.898035     -8.479753  KCAL/ANGSTROM
    178         60  O    CARTESIAN X     8.004010      0.278868  KCAL/ANGSTROM
    179         60  O    CARTESIAN Y    -8.080869    -11.470168  KCAL/ANGSTROM
    180         60  O    CARTESIAN Z     3.389732    -16.502232  KCAL/ANGSTROM
    181         61  H    CARTESIAN X     7.525963    -11.619096  KCAL/ANGSTROM
    182         61  H    CARTESIAN Y    -7.323693     22.336117  KCAL/ANGSTROM
    183         61  H    CARTESIAN Z     3.828300      8.971601  KCAL/ANGSTROM
    184         62  H    CARTESIAN X     7.874743     -4.026131  KCAL/ANGSTROM
    185         62  H    CARTESIAN Y    -7.982735     -5.374768  KCAL/ANGSTROM
    186         62  H    CARTESIAN Z     2.428744     -6.213595  KCAL/ANGSTROM
    187         63  O    CARTESIAN X     0.920055     11.289701  KCAL/ANGSTROM
    188         63  O    CARTESIAN Y    -9.961926    -46.663724  KCAL/ANGSTROM
    189         63  O    CARTESIAN Z     4.217412     -8.835746  KCAL/ANGSTROM
    190         64  H    CARTESIAN X     0.198578    -14.448452  KCAL/ANGSTROM
    191         64  H    CARTESIAN Y    -9.726189     13.467908  KCAL/ANGSTROM
    192         64  H    CARTESIAN Z     4.843498     11.857975  KCAL/ANGSTROM
    193         65  H    CARTESIAN X     1.317954      0.362779  KCAL/ANGSTROM
    194         65  H    CARTESIAN Y    -9.028191     36.194788  KCAL/ANGSTROM
    195         65  H    CARTESIAN Z     4.011315     -2.406959  KCAL/ANGSTROM
    196         66  O    CARTESIAN X     7.016223     -4.306264  KCAL/ANGSTROM
    197         66  O    CARTESIAN Y    -5.750414    -53.365425  KCAL/ANGSTROM
    198         66  O    CARTESIAN Z     4.195785     34.669536  KCAL/ANGSTROM
    199         67  H    CARTESIAN X     7.308849      8.185358  KCAL/ANGSTROM
    200         67  H    CARTESIAN Y    -5.127211     31.771972  KCAL/ANGSTROM
    201         67  H    CARTESIAN Z     3.425338    -34.108089  KCAL/ANGSTROM
    202         68  H    CARTESIAN X     6.370900     -0.959271  KCAL/ANGSTROM
    203         68  H    CARTESIAN Y    -5.211575     13.575957  KCAL/ANGSTROM
    204         68  H    CARTESIAN Z     4.675696     -3.779349  KCAL/ANGSTROM
    205         69  H    CARTESIAN X    -0.448360      6.422869  KCAL/ANGSTROM
    206         69  H    CARTESIAN Y    -5.159726      0.972817  KCAL/ANGSTROM
    207         69  H    CARTESIAN Z     1.114258      4.191026  KCAL/ANGSTROM
    208         70  H    CARTESIAN X     3.699790    -18.939381  KCAL/ANGSTROM
    209         70  H    CARTESIAN Y    -5.087965     -0.605745  KCAL/ANGSTROM
    210         70  H    CARTESIAN Z     0.798380      0.556661  KCAL/ANGSTROM




   ATOM   CHEMICAL          X               Y               Z
  NUMBER   SYMBOL      (ANGSTROMS)     (ANGSTROMS)     (ANGSTROMS)
 
     1       C          0.45689100  *  -5.72337200  *   1.33992200  *
     2       O          0.41140600  *  -6.80426300  *   1.94172200  *
     3       N          1.65671800  *  -5.20038100  *   0.99986200  *
     4       H          1.67185600  *  -4.21333900  *   0.68725600  *
     5       C          2.99620500  *  -5.77732200  *   1.26512900  *
     6       H          3.20590400  *  -5.87762400  *   2.35920900  *
     7       C          2.97061700  *  -7.14826400  *   0.52916200  *
     8       H          1.90157000  *  -7.47353300  *   0.49844900  *
     9       H          3.16979200  *  -7.07873200  *  -0.54529200  *
    10       C          3.70151900  *  -8.19891300  *   1.20037300  *
    11       C          3.06495800  *  -9.53156800  *   1.24979900  *
    12       H          2.05589400  *  -9.68479100  *   0.90870700  *
    13       C          3.71907200  * -10.60553300  *   1.74346700  *
    14       H          3.24855700  * -11.59444300  *   1.84168700  *
    15       C          5.01102400  * -10.46267400  *   2.26427600  *
    16       H          5.46493000  * -11.35264400  *   2.76458300  *
    17       C          5.01534300  *  -8.13032600  *   1.61738900  *
    18       H          5.47949300  *  -7.14577900  *   1.56139100  *
    19       C          5.66520500  *  -9.23384900  *   2.12281000  *
    20       H          6.74226500  *  -9.19018700  *   2.43972400  *
    21       O          2.25080900  *  -0.35800300  *  -0.15852600  *
    22       H          1.29137100  *  -0.63962900  *  -0.01649100  *
    23       H          2.68564200  *  -0.95801800  *   0.46430200  *
    24       O          1.93223500  *  -7.49999400  *   3.88501000  *
    25       H          1.17081400  *  -7.04994200  *   4.33461800  *
    26       H          1.76616500  *  -7.31698500  *   2.87890200  *
    27       O          9.99634500  *  -4.76296100  *   0.10158800  *
    28       H          9.21477200  *  -4.14505800  *   0.03698800  *
    29       H         10.70946000  *  -4.11068100  *  -0.09732700  *
    30       O          4.84550100  *  -6.04927800  *   6.86523700  *
    31       H          4.30051400  *  -6.69485100  *   6.41816600  *
    32       H          4.78897000  *  -5.24819000  *   6.22226100  *
    33       O          7.68573600  *  -6.95343100  *   1.13729900  *
    34       H          7.96914700  *  -6.00156500  *   1.26701000  *
    35       H          6.95839700  *  -6.94277800  *   0.58902700  *
    36       O          6.35190800  *  -6.78091200  *  -1.15137900  *
    37       H          6.83258000  *  -6.00125600  *  -1.65012500  *
    38       H          5.41898800  *  -6.34987100  *  -1.04097200  *
    39       O         -0.63270800  *  -6.36404900  *  -2.83921000  *
    40       H         -1.21423900  *  -5.88690400  *  -2.14344300  *
    41       H         -0.76320700  *  -5.70180500  *  -3.57780100  *
    42       O          3.66454600  *  -7.15931200  *  -3.58832500  *
    43       H          2.90100300  *  -6.84996100  *  -3.00809500  *
    44       H          3.67427100  *  -6.33655500  *  -4.18820600  *
    45       O          4.38503000  *  -7.89305000  *   4.53561800  *
    46       H          3.41546000  *  -7.71124300  *   4.38224900  *
    47       H          4.88061400  *  -7.39071000  *   3.86824500  *
    48       O          4.75054300  *  -4.03416800  *   5.22420200  *
    49       H          4.55984000  *  -3.05715600  *   5.48863800  *
    50       H          3.99563400  *  -4.18515900  *   4.57865600  *
    51       O          1.85350100  *  -6.03721900  *  -2.01243700  *
    52       H          0.97166700  *  -6.08758000  *  -2.25384700  *
    53       H          2.02060000  *  -5.04787200  *  -1.89969800  *
    54       O          2.14703600  *  -2.94072500  *  -2.41177400  *
    55       H          1.71827000  *  -2.83194400  *  -1.51579600  *
    56       H          1.47375500  *  -2.58088100  *  -2.98768400  *
    57       O          2.84815800  *  -4.16436700  *   3.44000000  *
    58       H          2.94761700  *  -3.31215100  *   2.80263300  *
    59       H          2.04247000  *  -3.81160500  *   3.89803500  *
    60       O          8.00401000  *  -8.08086900  *   3.38973200  *
    61       H          7.52596300  *  -7.32369300  *   3.82830000  *
    62       H          7.87474300  *  -7.98273500  *   2.42874400  *
    63       O          0.92005500  *  -9.96192600  *   4.21741200  *
    64       H          0.19857800  *  -9.72618900  *   4.84349800  *
    65       H          1.31795400  *  -9.02819100  *   4.01131500  *
    66       O          7.01622300  *  -5.75041400  *   4.19578500  *
    67       H          7.30884900  *  -5.12721100  *   3.42533800  *
    68       H          6.37090000  *  -5.21157500  *   4.67569600  *
    69       H         -0.44836000  *  -5.15972600  *   1.11425800  *
    70       H          3.69979000  *  -5.08796500  *   0.79838000  *

                             CARTESIAN COORDINATES

   1    C        0.456891000    -5.723372000     1.339922000
   2    O        0.411406000    -6.804263000     1.941722000
   3    N        1.656718000    -5.200381000     0.999862000
   4    H        1.671856000    -4.213339000     0.687256000
   5    C        2.996205000    -5.777322000     1.265129000
   6    H        3.205904000    -5.877624000     2.359209000
   7    C        2.970617000    -7.148264000     0.529162000
   8    H        1.901570000    -7.473533000     0.498449000
   9    H        3.169792000    -7.078732000    -0.545292000
  10    C        3.701519000    -8.198913000     1.200373000
  11    C        3.064958000    -9.531568000     1.249799000
  12    H        2.055894000    -9.684791000     0.908707000
  13    C        3.719072000   -10.605533000     1.743467000
  14    H        3.248557000   -11.594443000     1.841687000
  15    C        5.011024000   -10.462674000     2.264276000
  16    H        5.464930000   -11.352644000     2.764583000
  17    C        5.015343000    -8.130326000     1.617389000
  18    H        5.479493000    -7.145779000     1.561391000
  19    C        5.665205000    -9.233849000     2.122810000
  20    H        6.742265000    -9.190187000     2.439724000
  21    O        2.250809000    -0.358003000    -0.158526000
  22    H        1.291371000    -0.639629000    -0.016491000
  23    H        2.685642000    -0.958018000     0.464302000
  24    O        1.932235000    -7.499994000     3.885010000
  25    H        1.170814000    -7.049942000     4.334618000
  26    H        1.766165000    -7.316985000     2.878902000
  27    O        9.996345000    -4.762961000     0.101588000
  28    H        9.214772000    -4.145058000     0.036988000
  29    H       10.709460000    -4.110681000    -0.097327000
  30    O        4.845501000    -6.049278000     6.865237000
  31    H        4.300514000    -6.694851000     6.418166000
  32    H        4.788970000    -5.248190000     6.222261000
  33    O        7.685736000    -6.953431000     1.137299000
  34    H        7.969147000    -6.001565000     1.267010000
  35    H        6.958397000    -6.942778000     0.589027000
  36    O        6.351908000    -6.780912000    -1.151379000
  37    H        6.832580000    -6.001256000    -1.650125000
  38    H        5.418988000    -6.349871000    -1.040972000
  39    O       -0.632708000    -6.364049000    -2.839210000
  40    H       -1.214239000    -5.886904000    -2.143443000
  41    H       -0.763207000    -5.701805000    -3.577801000
  42    O        3.664546000    -7.159312000    -3.588325000
  43    H        2.901003000    -6.849961000    -3.008095000
  44    H        3.674271000    -6.336555000    -4.188206000
  45    O        4.385030000    -7.893050000     4.535618000
  46    H        3.415460000    -7.711243000     4.382249000
  47    H        4.880614000    -7.390710000     3.868245000
  48    O        4.750543000    -4.034168000     5.224202000
  49    H        4.559840000    -3.057156000     5.488638000
  50    H        3.995634000    -4.185159000     4.578656000
  51    O        1.853501000    -6.037219000    -2.012437000
  52    H        0.971667000    -6.087580000    -2.253847000
  53    H        2.020600000    -5.047872000    -1.899698000
  54    O        2.147036000    -2.940725000    -2.411774000
  55    H        1.718270000    -2.831944000    -1.515796000
  56    H        1.473755000    -2.580881000    -2.987684000
  57    O        2.848158000    -4.164367000     3.440000000
  58    H        2.947617000    -3.312151000     2.802633000
  59    H        2.042470000    -3.811605000     3.898035000
  60    O        8.004010000    -8.080869000     3.389732000
  61    H        7.525963000    -7.323693000     3.828300000
  62    H        7.874743000    -7.982735000     2.428744000
  63    O        0.920055000    -9.961926000     4.217412000
  64    H        0.198578000    -9.726189000     4.843498000
  65    H        1.317954000    -9.028191000     4.011315000
  66    O        7.016223000    -5.750414000     4.195785000
  67    H        7.308849000    -5.127211000     3.425338000
  68    H        6.370900000    -5.211575000     4.675696000
  69    H       -0.448360000    -5.159726000     1.114258000
  70    H        3.699790000    -5.087965000     0.798380000


           Empirical Formula: C9 H43 N O17  =    70 atoms



      MOLECULAR POINT GROUP   :   C1  


                EIGENVECTORS  


   Root No.      85        86        87        88        89        90        91        92

                85 A      86 A      87 A      88 A      89 A      90 A      91 A      92 A   

               -10.921   -10.756   -10.420   -10.370   -10.069    -9.174    -9.114    -8.579
  
  S   C    1    0.0180   -0.0281   -0.0247    0.0225    0.0009    0.0483    0.0667    0.0099
  Px  C    1    0.0036   -0.0224   -0.0052    0.0082   -0.0012   -0.0663   -0.0890    0.0300
  Py  C    1    0.0326   -0.0654   -0.0381    0.0501   -0.0002    0.0386    0.0510    0.0525
  Pz  C    1   -0.0140   -0.0279   -0.0087    0.0134   -0.0011   -0.0232   -0.0381    0.0700
  S   O    2    0.0165   -0.0190   -0.0062    0.0134   -0.0005    0.0053    0.0098    0.0095
  Px  O    2    0.0370   -0.0772   -0.1146    0.0973    0.0062    0.4984    0.6557   -0.0854
  Py  O    2   -0.0561   -0.0091    0.0376   -0.0178   -0.0005   -0.0648   -0.1119   -0.2477
  Pz  O    2   -0.0001   -0.1293   -0.0071    0.0619   -0.0005   -0.0344   -0.0788   -0.3810
  S   N    3   -0.0086    0.0175    0.0342   -0.0249   -0.0007   -0.0644   -0.0780   -0.0291
  Px  N    3    0.0179   -0.0101   -0.0172    0.0158    0.0021    0.1297    0.1891    0.0143
  Py  N    3   -0.0207    0.0755   -0.0233   -0.0186    0.0002    0.0869    0.1066    0.2162
  Pz  N    3    0.0660    0.0180   -0.0643    0.0167   -0.0018   -0.0127    0.0282    0.6202
  S   H    4   -0.0364    0.0509    0.0063   -0.0232    0.0005    0.0615    0.0644   -0.0043
  S   C    5    0.0180    0.0249    0.0099   -0.0222   -0.0005    0.0221    0.0065   -0.0280
  Px  C    5    0.0369   -0.0358   -0.0281    0.0255   -0.0012   -0.0943   -0.1370   -0.0146
  Py  C    5    0.1693   -0.1417   -0.1587    0.1501    0.0013   -0.0491   -0.0245    0.0208
  Pz  C    5    0.0279    0.2398    0.0141   -0.0961   -0.0004   -0.0028   -0.0056   -0.1358
  S   H    6   -0.0151    0.1819    0.0414   -0.0800   -0.0003   -0.0025   -0.0132   -0.1593
  S   C    7    0.0044   -0.0148    0.0018   -0.0029   -0.0005   -0.0042   -0.0021    0.0557
  Px  C    7   -0.0572    0.0585    0.1637   -0.1265    0.0003    0.0535    0.1376    0.0580
  Py  C    7   -0.2408    0.1473    0.1464   -0.1306   -0.0007    0.0515    0.0654    0.1216
  Pz  C    7    0.0814   -0.2049   -0.0405    0.0664   -0.0005    0.0345   -0.0283    0.0053
  S   H    8    0.0875   -0.0667   -0.1585    0.1212    0.0002   -0.0349   -0.0927   -0.0351
  S   H    9   -0.0775    0.1639    0.0650   -0.0800    0.0001   -0.0205    0.0512    0.0483
  S   C   10    0.0007   -0.0214   -0.0053    0.0119   -0.0003   -0.0052    0.0130    0.0077
  Px  C   10   -0.0714    0.1223   -0.1897    0.1058    0.0033    0.0288   -0.0388   -0.1065
  Py  C   10    0.1215   -0.1109   -0.2032    0.1611    0.0032   -0.0490    0.0050    0.0424
  Pz  C   10   -0.0916    0.0669   -0.0603    0.0314    0.0002   -0.1431    0.0276    0.2574
  S   C   11   -0.0382    0.0299    0.0362   -0.0309    0.0010    0.0068    0.0154    0.0145
  Px  C   11    0.1145   -0.1232    0.1677   -0.0976   -0.0055   -0.1027    0.1032   -0.0599
  Py  C   11   -0.1669    0.1171    0.2003   -0.1538   -0.0028    0.0875   -0.0258    0.0642
  Pz  C   11    0.0376   -0.0208   -0.0093    0.0050   -0.0036    0.3093   -0.2676    0.1957
  S   H   12   -0.0994    0.1045   -0.1331    0.0758    0.0043   -0.0083   -0.0015   -0.0044
  S   C   13   -0.0068    0.0011   -0.0024    0.0032   -0.0003   -0.0132    0.0078   -0.0054
  Px  C   13   -0.1489    0.1295   -0.1593    0.0921    0.0034   -0.1781    0.1193    0.0012
  Py  C   13    0.0926   -0.0473   -0.1614    0.1131    0.0012    0.0875   -0.0814   -0.0145
  Pz  C   13   -0.1124    0.1418   -0.0367    0.0020    0.0012    0.3989   -0.2750   -0.0387
  S   H   14   -0.0269   -0.0011    0.1788   -0.1198   -0.0025    0.0225    0.0034    0.0052
  S   C   15    0.0206   -0.0179    0.0029    0.0005    0.0002    0.0031   -0.0006   -0.0012
  Px  C   15    0.1540   -0.1745    0.1771   -0.0972   -0.0043   -0.0354    0.0100    0.1218
  Py  C   15   -0.0678    0.0503    0.1319   -0.0922   -0.0004    0.0555   -0.0060   -0.0857
  Pz  C   15    0.0891   -0.0238    0.0534   -0.0352    0.0003    0.1150   -0.0231   -0.2443
  S   H   16    0.1455   -0.1165   -0.0003    0.0127   -0.0010   -0.0034   -0.0021    0.0076
  S   C   17    0.0279   -0.0232   -0.0021    0.0049    0.0000    0.0029   -0.0151   -0.0014
  Px  C   17    0.0913   -0.1195    0.2087   -0.1258   -0.0037    0.1621   -0.0689   -0.0049
  Py  C   17   -0.0976    0.0582    0.1165   -0.0824   -0.0011   -0.0816    0.0711    0.0231
  Pz  C   17    0.0319   -0.0242    0.0427   -0.0222    0.0007   -0.4163    0.3039    0.0908
  S   H   18   -0.0212   -0.0121    0.1675   -0.1098   -0.0024    0.0193    0.0036    0.0112
  S   C   19   -0.0299    0.0240   -0.0213    0.0119    0.0005    0.0006    0.0015   -0.0039
  Px  C   19   -0.1897    0.1741   -0.2207    0.1236    0.0021    0.0612   -0.0808    0.0492
  Py  C   19    0.0634   -0.0238   -0.1163    0.0807    0.0019   -0.0928    0.0761   -0.0558
  Pz  C   19   -0.0751    0.1069   -0.0028   -0.0083    0.0026   -0.2605    0.2416   -0.2074
  S   H   20   -0.1518    0.1530   -0.1794    0.1002    0.0026   -0.0172   -0.0038   -0.0177
  S   O   21   -0.0000    0.0001    0.0000   -0.0000    0.0000   -0.0000   -0.0000   -0.0000
  Px  O   21   -0.0001    0.0002    0.0000   -0.0001    0.0000    0.0002    0.0002   -0.0000
  Py  O   21   -0.0004    0.0006   -0.0001   -0.0001    0.0000    0.0006    0.0006   -0.0000
  Pz  O   21    0.0001   -0.0002    0.0001    0.0000   -0.0000   -0.0003   -0.0003   -0.0000
  S   H   22    0.0000   -0.0000   -0.0000    0.0000    0.0000    0.0000    0.0001    0.0000
  S   H   23    0.0000   -0.0000   -0.0000    0.0000    0.0000    0.0000    0.0001    0.0000
  S   O   24    0.0041   -0.0109   -0.0105    0.0011   -0.0030    0.0025   -0.0001   -0.0003
  Px  O   24    0.0008    0.0395    0.2543    0.4157    0.0007    0.0506    0.0457   -0.0217
  Py  O   24   -0.0192    0.1157    0.4357    0.5840    0.0128   -0.0256   -0.0436    0.0441
  Pz  O   24    0.0138   -0.0128   -0.0036    0.0765   -0.0053    0.0950    0.1086   -0.0409
  S   H   25   -0.0022    0.0072    0.0036   -0.0020    0.0016    0.0009    0.0020   -0.0001
  S   H   26   -0.0027    0.0030    0.0061   -0.0017    0.0035    0.0054    0.0103   -0.0027
  S   O   27    0.0001   -0.0000   -0.0001    0.0001    0.0000   -0.0001    0.0001   -0.0000
  Px  O   27   -0.0001    0.0000    0.0003   -0.0002   -0.0000    0.0003   -0.0002    0.0000
  Py  O   27    0.0000   -0.0000   -0.0000    0.0000    0.0000   -0.0001    0.0001   -0.0000
  Pz  O   27    0.0002   -0.0000   -0.0002    0.0001    0.0000   -0.0002    0.0001   -0.0000
  S   H   28    0.0000   -0.0000    0.0000   -0.0000   -0.0000    0.0000   -0.0000    0.0000
  S   H   29   -0.0001    0.0000    0.0002   -0.0001   -0.0000    0.0002   -0.0001    0.0000
  S   O   30    0.0060    0.0043    0.0001    0.0001    0.0000    0.0001   -0.0001    0.0001
  Px  O   30    0.0115    0.0087    0.0008   -0.0001    0.0001   -0.0022    0.0023   -0.0007
  Py  O   30   -0.0420   -0.0313    0.0029    0.0038    0.0001   -0.0026    0.0026   -0.0003
  Pz  O   30    0.0568    0.0479    0.0006    0.0004    0.0002   -0.0032    0.0040   -0.0016
  S   H   31    0.0005    0.0005   -0.0002   -0.0003   -0.0000   -0.0005    0.0005   -0.0002
  S   H   32   -0.0043   -0.0026    0.0001    0.0000    0.0000   -0.0002    0.0002   -0.0002
  S   O   33    0.0013   -0.0014    0.0024   -0.0013   -0.0000   -0.0029    0.0020   -0.0002
  Px  O   33   -0.0122   -0.0083    0.0694   -0.0444   -0.0009    0.0219   -0.0102    0.0017
  Py  O   33    0.0016    0.0026   -0.0198    0.0126    0.0002   -0.0022    0.0002   -0.0002
  Pz  O   33    0.0110    0.0031   -0.0282    0.0174    0.0003    0.0046   -0.0043   -0.0006
  S   H   34   -0.0018    0.0007    0.0020   -0.0015   -0.0001    0.0050   -0.0031    0.0004
  S   H   35   -0.0001    0.0013   -0.0063    0.0040    0.0001    0.0006   -0.0008   -0.0001
  S   O   36    0.0002   -0.0001   -0.0011    0.0008    0.0000   -0.0023    0.0012   -0.0001
  Px  O   36   -0.0053    0.0084    0.0075   -0.0064   -0.0000    0.0029    0.0000    0.0028
  Py  O   36    0.0040   -0.0032   -0.0066    0.0047    0.0001   -0.0014    0.0003   -0.0021
  Pz  O   36    0.0024    0.0017   -0.0075    0.0046    0.0001   -0.0062    0.0039    0.0003
  S   H   37   -0.0009    0.0008    0.0025   -0.0019   -0.0000    0.0038   -0.0020   -0.0003
  S   H   38    0.0002   -0.0003   -0.0003    0.0001    0.0000    0.0007   -0.0001    0.0008
  S   O   39    0.0011   -0.0020   -0.0005    0.0007   -0.0000    0.0002   -0.0004    0.0000
  Px  O   39    0.0228   -0.0314   -0.0062    0.0078   -0.0000    0.0019   -0.0010   -0.0005
  Py  O   39    0.0139   -0.0193   -0.0034    0.0044   -0.0000   -0.0002   -0.0023    0.0003
  Pz  O   39    0.0084   -0.0119   -0.0020    0.0027   -0.0000   -0.0004   -0.0020    0.0004
  S   H   40   -0.0009    0.0014    0.0004   -0.0005    0.0000   -0.0001    0.0003   -0.0001
  S   H   41   -0.0006    0.0012    0.0003   -0.0004    0.0000   -0.0000    0.0003   -0.0000
  S   O   42    0.0004   -0.0009   -0.0003    0.0004   -0.0000    0.0002   -0.0003    0.0003
  Px  O   42   -0.0077    0.0096    0.0012   -0.0019    0.0000   -0.0008    0.0010   -0.0024
  Py  O   42    0.0063   -0.0088   -0.0017    0.0023   -0.0000    0.0006   -0.0010    0.0010
  Pz  O   42    0.0071   -0.0107   -0.0024    0.0032   -0.0000    0.0008   -0.0015    0.0008
  S   H   43   -0.0011    0.0013    0.0001   -0.0003    0.0000   -0.0003    0.0003   -0.0013
  S   H   44   -0.0008    0.0015    0.0005   -0.0006    0.0000   -0.0002    0.0004    0.0000
  S   O   45   -0.0007    0.0043    0.0077    0.0099   -0.0000   -0.0002   -0.0022    0.0026
  Px  O   45    0.0010    0.0144    0.0627    0.1169    0.0020    0.0314    0.0174   -0.0094
  Py  O   45    0.0069    0.0007   -0.0409   -0.0600   -0.0003   -0.0109   -0.0042   -0.0020
  Pz  O   45    0.0003    0.0335    0.0452    0.0470    0.0016   -0.0628    0.0644   -0.0114
  S   H   46    0.0002   -0.0025   -0.0025   -0.0032    0.0001   -0.0010    0.0064   -0.0039
  S   H   47    0.0010   -0.0035   -0.0014    0.0012    0.0001    0.0034    0.0010   -0.0013
  S   O   48    0.0261    0.0181   -0.0001   -0.0011   -0.0000    0.0001   -0.0002    0.0003
  Px  O   48    0.1623    0.1421   -0.0042   -0.0116    0.0000    0.0009    0.0018   -0.0021
  Py  O   48   -0.0494   -0.0363    0.0010    0.0021   -0.0000   -0.0002    0.0001    0.0003
  Pz  O   48    0.1753    0.1428   -0.0059   -0.0090    0.0000    0.0008    0.0010   -0.0017
  S   H   49   -0.0048   -0.0016   -0.0004    0.0000    0.0000   -0.0000    0.0001   -0.0003
  S   H   50   -0.0181   -0.0116   -0.0002    0.0005    0.0000    0.0001    0.0004   -0.0001
  S   O   51    0.0104   -0.0195   -0.0042    0.0063   -0.0000    0.0024   -0.0026   -0.0011
  Px  O   51    0.0035   -0.0109   -0.0060    0.0067    0.0001    0.0013   -0.0029   -0.0095
  Py  O   51   -0.0104    0.0248    0.0025   -0.0064   -0.0001   -0.0040    0.0001    0.0139
  Pz  O   51    0.0586   -0.0764   -0.0087    0.0144   -0.0002    0.0055   -0.0025    0.0083
  S   H   52   -0.0081    0.0136    0.0040   -0.0051    0.0000   -0.0016    0.0024    0.0004
  S   H   53   -0.0037    0.0092    0.0012   -0.0026    0.0000   -0.0015    0.0008   -0.0012
  S   O   54    0.0001   -0.0004   -0.0000    0.0001   -0.0000   -0.0001   -0.0003    0.0003
  Px  O   54   -0.0030    0.0046    0.0004   -0.0011    0.0000    0.0015    0.0019   -0.0013
  Py  O   54   -0.0038    0.0070    0.0007   -0.0014    0.0000   -0.0005    0.0002   -0.0000
  Pz  O   54    0.0011   -0.0011    0.0000    0.0004   -0.0000   -0.0022   -0.0023    0.0016
  S   H   55    0.0000    0.0000    0.0000   -0.0000    0.0000    0.0003    0.0003   -0.0006
  S   H   56   -0.0003    0.0005    0.0000   -0.0001    0.0000    0.0002    0.0003   -0.0002
  S   O   57   -0.0057   -0.0305   -0.0025    0.0087   -0.0000    0.0011    0.0018    0.0141
  Px  O   57    0.3759    0.3159   -0.0123   -0.0213    0.0001    0.0044    0.0071    0.0086
  Py  O   57    0.2916    0.2923    0.0007   -0.0355    0.0000   -0.0016   -0.0024   -0.0275
  Pz  O   57    0.4584    0.4018   -0.0217   -0.0332    0.0001    0.0025    0.0047   -0.0055
  S   H   58   -0.0027    0.0155    0.0048   -0.0055    0.0000   -0.0002   -0.0006   -0.0076
  S   H   59    0.0030    0.0194   -0.0000   -0.0057   -0.0000   -0.0013   -0.0020   -0.0116
  S   O   60    0.0040   -0.0038    0.0064   -0.0037   -0.0001    0.0008    0.0002    0.0011
  Px  O   60   -0.2428    0.2058   -0.1686    0.0909    0.0020   -0.0196    0.0094   -0.0122
  Py  O   60   -0.1459    0.1103   -0.0941    0.0501    0.0011   -0.0077    0.0017   -0.0047
  Pz  O   60   -0.0300    0.0311   -0.0362    0.0198    0.0005    0.0005   -0.0028   -0.0021
  S   H   61   -0.0073    0.0068   -0.0091    0.0051    0.0001   -0.0006   -0.0004   -0.0010
  S   H   62    0.0098   -0.0091    0.0083   -0.0044   -0.0001    0.0008   -0.0003    0.0002
  S   O   63    0.0028   -0.0157   -0.0444   -0.0568    0.0005   -0.0009    0.0021   -0.0005
  Px  O   63    0.0023    0.0012    0.0307    0.0302    0.6349   -0.0056   -0.0034    0.0031
  Py  O   63   -0.0097    0.0684    0.2453    0.3258   -0.0965   -0.0131   -0.0096    0.0093
  Pz  O   63    0.0012    0.0005    0.0097   -0.0018    0.7662    0.0022   -0.0058    0.0020
  S   H   64   -0.0015    0.0059    0.0125    0.0158   -0.0009    0.0027   -0.0021    0.0003
  S   H   65   -0.0019    0.0135    0.0405    0.0508    0.0009   -0.0008   -0.0005   -0.0005
  S   O   66    0.0050   -0.0023    0.0033   -0.0019   -0.0000    0.0003   -0.0001    0.0004
  Px  O   66    0.0093    0.0065    0.0066   -0.0043   -0.0000   -0.0008    0.0014   -0.0006
  Py  O   66   -0.0164   -0.0057   -0.0030    0.0027    0.0001   -0.0006    0.0003   -0.0000
  Pz  O   66   -0.0073   -0.0025    0.0037   -0.0019   -0.0000   -0.0006    0.0006   -0.0001
  S   H   67   -0.0016    0.0014   -0.0018    0.0011    0.0000   -0.0002    0.0001   -0.0002
  S   H   68   -0.0044    0.0024   -0.0030    0.0016    0.0000   -0.0003    0.0001   -0.0003
  S   H   69    0.0280   -0.0301   -0.0355    0.0351    0.0020    0.1440    0.1956   -0.0080
  S   H   70    0.0994   -0.1537   -0.0919    0.1077   -0.0001   -0.0609   -0.0812    0.0357


   Root No.      93        94        95        96        97        98        99       100

                93 A      94 A      95 A      96 A      97 A      98 A      99 A     100 A   

                -8.283     0.979     1.260     2.642     3.388     3.426     3.558     3.663
  
  S   C    1   -0.0038    0.0004   -0.0014   -0.0362   -0.1554   -0.1836   -0.0517    0.0301
  Px  C    1    0.0302   -0.0024    0.0001    0.0069   -0.1993   -0.2297   -0.0605    0.0289
  Py  C    1    0.0360   -0.0105    0.0060    0.3638   -0.1514   -0.1517   -0.0538    0.0183
  Pz  C    1    0.0692   -0.0181    0.0094    0.7068   -0.0090    0.0360    0.0031   -0.0015
  S   O    2    0.0019   -0.0002    0.0011    0.0016   -0.0208   -0.0238   -0.0094   -0.0001
  Px  O    2   -0.1117    0.0020    0.0023    0.0080    0.0792    0.0920    0.0210   -0.0164
  Py  O    2   -0.1193    0.0052   -0.0029   -0.2033    0.0236    0.0150    0.0029   -0.0063
  Pz  O    2   -0.2002    0.0083   -0.0051   -0.3793    0.0364    0.0163    0.0121   -0.0037
  S   N    3   -0.0263    0.0068    0.0004    0.0715    0.2656    0.3148    0.0801   -0.0422
  Px  N    3   -0.0353    0.0059    0.0010    0.0150    0.0706    0.0806    0.0254   -0.0102
  Py  N    3    0.1542   -0.0061    0.0001   -0.1517   -0.0602   -0.0864   -0.0295    0.0114
  Pz  N    3    0.3522    0.0011   -0.0004   -0.3355    0.1258    0.1136    0.0529   -0.0210
  S   H    4    0.0216   -0.0122    0.0016   -0.0727   -0.1829   -0.2304   -0.0459    0.0310
  S   C    5    0.0288   -0.0433    0.0104   -0.0022   -0.0795   -0.1530   -0.0327    0.0013
  Px  C    5    0.0195    0.0021    0.0014    0.0692    0.3248    0.3758    0.0980   -0.0634
  Py  C    5   -0.0841    0.0698   -0.0239   -0.0814   -0.2090   -0.1436   -0.0889    0.0176
  Pz  C    5   -0.1278    0.0288   -0.0146   -0.0237   -0.0011    0.0510   -0.0022   -0.0197
  S   H    6   -0.1098    0.0011    0.0003    0.0708   -0.0128   -0.0147   -0.0091    0.0147
  S   C    7    0.0298   -0.0035    0.0016   -0.0479    0.0085    0.0003   -0.0351    0.0077
  Px  C    7   -0.1015    0.0090   -0.0033   -0.0093    0.0285    0.0099   -0.0020    0.0052
  Py  C    7    0.0948    0.0331   -0.0138   -0.0846   -0.0985   -0.0388   -0.0515    0.0006
  Pz  C    7    0.1696   -0.0285    0.0066   -0.0442   -0.0284    0.0047    0.0540    0.0036
  S   H    8    0.0691   -0.0348    0.0071   -0.0022    0.0588    0.0337    0.0144   -0.0024
  S   H    9   -0.1535    0.1010   -0.0299    0.0017   -0.0646    0.0417    0.0189   -0.0084
  S   C   10   -0.0281    0.0327   -0.0125    0.0028   -0.0622   -0.0218   -0.0204   -0.0008
  Px  C   10    0.1670   -0.2104    0.0588   -0.0094    0.1070   -0.0552    0.0361   -0.0068
  Py  C   10   -0.1296    0.1559   -0.0376   -0.0028   -0.1185    0.0206   -0.0548   -0.0197
  Pz  C   10   -0.3718    0.5270   -0.1417    0.0082   -0.1925    0.2479   -0.0779   -0.0192
  S   C   11    0.0018   -0.0040    0.0104   -0.0095   -0.0120    0.0078   -0.0124   -0.0134
  Px  C   11    0.1168    0.1130    0.1641   -0.0104   -0.0986    0.1042   -0.0367   -0.0144
  Py  C   11   -0.0443   -0.0651   -0.0923   -0.0076    0.0616   -0.0703    0.0066   -0.0130
  Pz  C   11   -0.3200   -0.3228   -0.4106    0.0141    0.2563   -0.2450    0.0826    0.0135
  S   H   12    0.0035   -0.0005   -0.0089   -0.0002    0.0091    0.0010    0.0028   -0.0012
  S   C   13    0.0028    0.0043   -0.0253    0.0021    0.0101   -0.0182   -0.0012   -0.0091
  Px  C   13   -0.0048    0.0522   -0.2020    0.0082    0.1143   -0.1000    0.0279   -0.0091
  Py  C   13   -0.0033   -0.0351    0.1192   -0.0053   -0.0747    0.0607   -0.0240   -0.0064
  Pz  C   13    0.0677   -0.1385    0.4812   -0.0257   -0.2828    0.2766   -0.0837   -0.0201
  S   H   14    0.0136    0.0032    0.0164   -0.0034   -0.0081    0.0086   -0.0053   -0.0037
  S   C   15   -0.0002   -0.0007   -0.0002   -0.0002   -0.0147    0.0066   -0.0055   -0.0010
  Px  C   15   -0.1817   -0.2101    0.0026   -0.0122   -0.1157    0.1110   -0.0395   -0.0210
  Py  C   15    0.1448    0.1612   -0.0208    0.0075    0.0827   -0.0866    0.0199   -0.0001
  Pz  C   15    0.3868    0.4827   -0.0400    0.0248    0.2688   -0.2549    0.0753    0.0111
  S   H   16   -0.0166    0.0143    0.0002    0.0014    0.0163   -0.0192    0.0073    0.0089
  S   C   17    0.0054   -0.0116   -0.0069    0.0003   -0.0000   -0.0059   -0.0185   -0.0377
  Px  C   17    0.0397    0.0789   -0.1628   -0.0057   -0.0958    0.0847   -0.0511   -0.0462
  Py  C   17   -0.0293   -0.0411    0.1173   -0.0014    0.0515   -0.0799   -0.0077   -0.0479
  Pz  C   17   -0.1998   -0.2061    0.4774    0.0003    0.2228   -0.2230    0.0858    0.0271
  S   H   18    0.0044    0.0052    0.0065    0.0023    0.0156    0.0098    0.0272    0.0472
  S   C   19    0.0008    0.0076    0.0070    0.0006    0.0012   -0.0112   -0.0114   -0.0329
  Px  C   19   -0.0704    0.0991    0.1286    0.0045    0.0828   -0.0774    0.0059   -0.0498
  Py  C   19    0.0625   -0.0944   -0.1246   -0.0047   -0.0839    0.0641   -0.0320   -0.0174
  Pz  C   19    0.3003   -0.3344   -0.4205   -0.0167   -0.2591    0.2583   -0.0866   -0.0383
  S   H   20    0.0228    0.0028   -0.0018    0.0016    0.0086   -0.0018    0.0189    0.0457
  S   O   21   -0.0000    0.0000    0.0000    0.0008    0.0047    0.0046   -0.0027    0.0004
  Px  O   21    0.0000   -0.0000   -0.0000   -0.0004   -0.0031   -0.0028    0.0026   -0.0012
  Py  O   21    0.0002   -0.0001   -0.0000   -0.0011   -0.0064   -0.0063    0.0038   -0.0005
  Pz  O   21   -0.0001    0.0000    0.0000    0.0009    0.0046    0.0047   -0.0020   -0.0002
  S   H   22    0.0000   -0.0001   -0.0000   -0.0012   -0.0087   -0.0085    0.0058   -0.0015
  S   H   23    0.0000   -0.0001   -0.0000   -0.0015   -0.0087   -0.0088    0.0043    0.0002
  S   O   24    0.0052   -0.0035    0.0044    0.0151   -0.0052   -0.0077   -0.0067   -0.0146
  Px  O   24   -0.0186    0.0030   -0.0048   -0.0202    0.0054    0.0067    0.0039    0.0041
  Py  O   24    0.0270   -0.0039    0.0012    0.0110   -0.0018   -0.0048   -0.0031   -0.0073
  Pz  O   24   -0.0530    0.0104   -0.0098   -0.0218    0.0069    0.0125    0.0051    0.0034
  S   H   25   -0.0079    0.0042   -0.0048   -0.0193    0.0053    0.0083    0.0082    0.0204
  S   H   26   -0.0047    0.0079   -0.0092   -0.0351    0.0125    0.0193    0.0124    0.0196
  S   O   27   -0.0000   -0.0003    0.0003   -0.0000    0.0019   -0.0027   -0.0090   -0.0226
  Px  O   27    0.0000    0.0002   -0.0002    0.0000   -0.0008    0.0011    0.0035    0.0076
  Py  O   27   -0.0000   -0.0003    0.0004   -0.0000    0.0030   -0.0043   -0.0144   -0.0362
  Pz  O   27   -0.0000    0.0000   -0.0000    0.0000   -0.0005    0.0007    0.0024    0.0060
  S   H   28    0.0000    0.0004   -0.0005    0.0000   -0.0038    0.0053    0.0179    0.0445
  S   H   29    0.0000    0.0004   -0.0005    0.0000   -0.0033    0.0047    0.0160    0.0411
  S   O   30    0.0001    0.0005   -0.0003    0.0006    0.0040    0.0023   -0.0097   -0.0483
  Px  O   30   -0.0003   -0.0007    0.0004   -0.0006   -0.0020   -0.0014    0.0060    0.0297
  Py  O   30    0.0003   -0.0007    0.0004   -0.0001    0.0051    0.0027   -0.0067   -0.0376
  Pz  O   30   -0.0010   -0.0009    0.0005   -0.0010   -0.0072   -0.0040    0.0168    0.0833
  S   H   31   -0.0000   -0.0012    0.0007   -0.0011   -0.0039   -0.0023    0.0131    0.0630
  S   H   32   -0.0002   -0.0004    0.0002   -0.0009   -0.0115   -0.0064    0.0230    0.1196
  S   O   33   -0.0007   -0.0059    0.0066   -0.0002    0.0131   -0.0189   -0.0516   -0.1226
  Px  O   33    0.0045    0.0088   -0.0108    0.0003   -0.0127    0.0188    0.0412    0.0839
  Py  O   33   -0.0011   -0.0027    0.0038   -0.0002    0.0104   -0.0150   -0.0432   -0.1049
  Pz  O   33    0.0013    0.0052   -0.0072    0.0001   -0.0096    0.0134    0.0277    0.0475
  S   H   34    0.0006    0.0067   -0.0063    0.0003   -0.0172    0.0246    0.0733    0.1846
  S   H   35    0.0006    0.0096   -0.0126    0.0004   -0.0242    0.0344    0.0863    0.1924
  S   O   36   -0.0002   -0.0040    0.0059   -0.0000    0.0238   -0.0305   -0.0942   -0.1487
  Px  O   36   -0.0038    0.0047   -0.0060   -0.0001   -0.0197    0.0245    0.0751    0.0952
  Py  O   36    0.0019   -0.0058    0.0082   -0.0000    0.0395   -0.0504   -0.1589   -0.2494
  Pz  O   36   -0.0023   -0.0011    0.0015   -0.0000   -0.0081    0.0092    0.0359    0.0530
  S   H   37    0.0009    0.0054   -0.0096    0.0001   -0.0467    0.0596    0.1882    0.3122
  S   H   38   -0.0009    0.0081   -0.0113   -0.0001   -0.0542    0.0692    0.2169    0.3224
  S   O   39    0.0014   -0.0013    0.0005    0.0021    0.0224    0.0043   -0.0670    0.0360
  Px  O   39    0.0054   -0.0009    0.0003   -0.0028   -0.0066   -0.0004    0.0308   -0.0189
  Py  O   39    0.0039   -0.0020    0.0007    0.0037    0.0352    0.0068   -0.1060    0.0572
  Pz  O   39    0.0027   -0.0007    0.0002    0.0022    0.0058    0.0006   -0.0183    0.0095
  S   H   40   -0.0010    0.0017   -0.0006   -0.0059   -0.0410   -0.0071    0.1311   -0.0722
  S   H   41   -0.0009    0.0015   -0.0005   -0.0025   -0.0362   -0.0073    0.1094   -0.0597
  S   O   42    0.0018   -0.0033    0.0012   -0.0005    0.0625    0.0092   -0.1963    0.0898
  Px  O   42   -0.0062    0.0051   -0.0017    0.0006   -0.0658   -0.0111    0.1906   -0.0893
  Py  O   42    0.0048   -0.0046    0.0017   -0.0006    0.0953    0.0137   -0.3065    0.1398
  Pz  O   42    0.0063   -0.0030    0.0010   -0.0002    0.0021    0.0008    0.0166   -0.0103
  S   H   43   -0.0031    0.0081   -0.0028    0.0011   -0.1340   -0.0216    0.3978   -0.1835
  S   H   44   -0.0016    0.0040   -0.0016    0.0007   -0.1295   -0.0178    0.4379   -0.2027
  S   O   45   -0.0006    0.0061   -0.0045    0.0037   -0.0044   -0.0002   -0.0094   -0.0283
  Px  O   45   -0.0188    0.0108   -0.0067   -0.0082    0.0009    0.0059    0.0014    0.0038
  Py  O   45    0.0228    0.0067   -0.0120    0.0024   -0.0061    0.0024   -0.0113   -0.0336
  Pz  O   45   -0.0142   -0.0168    0.0141   -0.0027    0.0079   -0.0023    0.0121    0.0323
  S   H   46   -0.0008   -0.0029    0.0002   -0.0106    0.0056    0.0055    0.0132    0.0397
  S   H   47   -0.0015   -0.0144    0.0149   -0.0025    0.0106   -0.0047    0.0193    0.0565
  S   O   48    0.0004   -0.0001    0.0000    0.0007    0.0111    0.0071   -0.0148   -0.0826
  Px  O   48   -0.0040    0.0006   -0.0002   -0.0012   -0.0145   -0.0117    0.0094    0.0711
  Py  O   48    0.0003   -0.0001    0.0001    0.0002    0.0055    0.0035   -0.0076   -0.0443
  Pz  O   48   -0.0030    0.0005   -0.0002   -0.0005   -0.0070   -0.0057    0.0022    0.0218
  S   H   49   -0.0004   -0.0000    0.0000   -0.0008   -0.0162   -0.0094    0.0262    0.1420
  S   H   50   -0.0008    0.0006   -0.0002   -0.0017   -0.0227   -0.0168    0.0198    0.1287
  S   O   51    0.0117   -0.0075    0.0024   -0.0006    0.0621    0.0152   -0.1486    0.0713
  Px  O   51    0.0025    0.0004   -0.0003   -0.0028   -0.0232   -0.0071    0.0561   -0.0305
  Py  O   51    0.0000   -0.0023    0.0009   -0.0032    0.0615    0.0249   -0.1256    0.0609
  Pz  O   51    0.0231   -0.0020    0.0005   -0.0005   -0.0226   -0.0030    0.0790   -0.0370
  S   H   52   -0.0098    0.0087   -0.0029   -0.0009   -0.0769   -0.0168    0.1903   -0.0936
  S   H   53   -0.0075    0.0085   -0.0029    0.0041   -0.1097   -0.0343    0.2481   -0.1200
  S   O   54    0.0004   -0.0004    0.0002    0.0011    0.0226    0.0145   -0.0347    0.0171
  Px  O   54   -0.0011    0.0006   -0.0003   -0.0017   -0.0323   -0.0210    0.0492   -0.0243
  Py  O   54   -0.0017    0.0005   -0.0002    0.0008    0.0049    0.0056   -0.0027    0.0017
  Pz  O   54    0.0004    0.0000    0.0001    0.0018    0.0147    0.0128   -0.0117    0.0052
  S   H   55   -0.0003    0.0003   -0.0002   -0.0030   -0.0434   -0.0320    0.0555   -0.0271
  S   H   56   -0.0004    0.0006   -0.0003   -0.0012   -0.0346   -0.0206    0.0598   -0.0300
  S   O   57    0.0111   -0.0012    0.0006    0.0005    0.0161    0.0143   -0.0013   -0.0366
  Px  O   57    0.0004    0.0007   -0.0005   -0.0008   -0.0091   -0.0091   -0.0038    0.0013
  Py  O   57   -0.0215   -0.0003    0.0003    0.0080    0.0220    0.0210   -0.0025   -0.0507
  Pz  O   57   -0.0126    0.0017   -0.0008   -0.0059   -0.0098   -0.0104   -0.0063   -0.0112
  S   H   58   -0.0055    0.0013   -0.0007   -0.0069   -0.0332   -0.0314    0.0011    0.0679
  S   H   59   -0.0097    0.0017   -0.0008    0.0006   -0.0221   -0.0191    0.0008    0.0486
  S   O   60   -0.0016    0.0001    0.0019   -0.0000    0.0064   -0.0076   -0.0338   -0.1054
  Px  O   60    0.0146   -0.0037   -0.0044   -0.0001   -0.0066    0.0072    0.0291    0.0959
  Py  O   60    0.0058    0.0006    0.0007    0.0002    0.0085   -0.0081   -0.0414   -0.1374
  Pz  O   60    0.0034    0.0039   -0.0023    0.0003   -0.0046    0.0086    0.0280    0.0657
  S   H   61    0.0013   -0.0022   -0.0023   -0.0002   -0.0121    0.0116    0.0611    0.2090
  S   H   62   -0.0001    0.0024   -0.0029    0.0002   -0.0112    0.0154    0.0606    0.1735
  S   O   63    0.0004    0.0009    0.0012    0.0024   -0.0016   -0.0009   -0.0016   -0.0034
  Px  O   63    0.0031    0.0003    0.0006    0.0011   -0.0005   -0.0004   -0.0005   -0.0011
  Py  O   63    0.0140    0.0012    0.0043    0.0066   -0.0041   -0.0022   -0.0041   -0.0083
  Pz  O   63   -0.0022   -0.0006   -0.0007    0.0000    0.0002   -0.0003   -0.0000   -0.0002
  S   H   64   -0.0013   -0.0014   -0.0008   -0.0022    0.0015    0.0009    0.0017    0.0034
  S   H   65   -0.0005   -0.0012   -0.0032   -0.0062    0.0043    0.0024    0.0044    0.0091
  S   O   66   -0.0003    0.0007    0.0001    0.0001    0.0080   -0.0039   -0.0371   -0.1404
  Px  O   66   -0.0008   -0.0008    0.0007   -0.0002   -0.0044   -0.0007    0.0161    0.0692
  Py  O   66    0.0008   -0.0000   -0.0002    0.0001    0.0102   -0.0031   -0.0439   -0.1732
  Pz  O   66    0.0000   -0.0001   -0.0001    0.0001   -0.0016    0.0039    0.0146    0.0451
  S   H   67    0.0001   -0.0007   -0.0001   -0.0001   -0.0129    0.0084    0.0663    0.2467
  S   H   68    0.0002   -0.0010   -0.0001   -0.0003   -0.0150    0.0042    0.0635    0.2514
  S   H   69   -0.0305    0.0012    0.0014    0.0248    0.1313    0.1542    0.0470   -0.0251
  S   H   70    0.0338    0.0018   -0.0005   -0.0082    0.0181    0.0250    0.0225    0.0055


              NET ATOMIC CHARGES AND DIPOLE CONTRIBUTIONS

  ATOM NO.   TYPE          CHARGE      No. of ELECS.   s-Pop       p-Pop       
    1          C           0.490887        3.5091     1.11744     2.39167
    2          O          -0.675663        6.6757     1.87966     4.79601
    3          N          -0.546086        5.5461     1.56435     3.98174
    4          H           0.365703        0.6343     0.63430
    5          C          -0.024463        4.0245     1.07550     2.94896
    6          H           0.149366        0.8506     0.85063
    7          C          -0.370354        4.3704     1.05453     3.31582
    8          H           0.206716        0.7933     0.79328
    9          H           0.167774        0.8322     0.83223
   10          C           0.010281        3.9897     1.08071     2.90901
   11          C          -0.193435        4.1934     1.09524     3.09820
   12          H           0.174348        0.8257     0.82565
   13          C          -0.138337        4.1383     1.08226     3.05608
   14          H           0.168289        0.8317     0.83171
   15          C          -0.169088        4.1691     1.09006     3.07903
   16          H           0.159359        0.8406     0.84064
   17          C          -0.246053        4.2461     1.07351     3.17255
   18          H           0.167813        0.8322     0.83219
   19          C          -0.161199        4.1612     1.08985     3.07135
   20          H           0.151725        0.8483     0.84828
   21          O          -0.876406        6.8764     1.83593     5.04048
   22          H           0.450276        0.5497     0.54972
   23          H           0.426347        0.5737     0.57365
   24          O          -0.792026        6.7920     1.82454     4.96748
   25          H           0.423889        0.5761     0.57611
   26          H           0.412365        0.5876     0.58764
   27          O          -0.804875        6.8049     1.84235     4.96253
   28          H           0.422458        0.5775     0.57754
   29          H           0.382694        0.6173     0.61731
   30          O          -0.855765        6.8558     1.83457     5.02120
   31          H           0.384102        0.6159     0.61590
   32          H           0.418849        0.5812     0.58115
   33          O          -0.799193        6.7992     1.79059     5.00860
   34          H           0.446122        0.5539     0.55388
   35          H           0.362845        0.6372     0.63715
   36          O          -0.779528        6.7795     1.86616     4.91337
   37          H           0.410233        0.5898     0.58977
   38          H           0.380483        0.6195     0.61952
   39          O          -0.705435        6.7054     1.85719     4.84825
   40          H           0.353384        0.6466     0.64662
   41          H           0.376793        0.6232     0.62321
   42          O          -0.888240        6.8882     1.85550     5.03275
   43          H           0.430377        0.5696     0.56962
   44          H           0.414449        0.5856     0.58555
   45          O          -0.847581        6.8476     1.82277     5.02481
   46          H           0.427884        0.5721     0.57212
   47          H           0.375002        0.6250     0.62500
   48          O          -0.816018        6.8160     1.83844     4.97757
   49          H           0.431603        0.5684     0.56840
   50          H           0.389961        0.6100     0.61004
   51          O          -0.746754        6.7468     1.80225     4.94450
   52          H           0.369813        0.6302     0.63019
   53          H           0.390194        0.6098     0.60981
   54          O          -0.805658        6.8057     1.82710     4.97856
   55          H           0.440970        0.5590     0.55903
   56          H           0.368805        0.6312     0.63119
   57          O          -0.796803        6.7968     1.85986     4.93694
   58          H           0.426254        0.5737     0.57375
   59          H           0.419152        0.5808     0.58085
   60          O          -0.866631        6.8666     1.82418     5.04245
   61          H           0.411141        0.5889     0.58886
   62          H           0.409556        0.5904     0.59044
   63          O          -0.856542        6.8565     1.84630     5.01024
   64          H           0.407524        0.5925     0.59248
   65          H           0.407915        0.5921     0.59208
   66          O          -0.758762        6.7588     1.82935     4.92941
   67          H           0.410749        0.5893     0.58925
   68          H           0.362355        0.6376     0.63764
   69          H           0.185008        0.8150     0.81499
   70          H           0.179083        0.8209     0.82092
 DIPOLE           X         Y         Z       TOTAL
 POINT-CHG.   -20.547    32.787   -10.995    40.224
 HYBRID        -1.862     2.249    -0.564     2.974
 SUM          -22.409    35.035   -11.559    43.165


          ATOMIC ORBITAL ELECTRON POPULATIONS

     Atom    s        px        py        pz   
    1  C   1.11744   0.85797   0.81237   0.72133
    2  O   1.87966   1.88654   1.37881   1.53065
    3  N   1.56435   1.10665   1.27472   1.60037
    4  H   0.63430
    5  C   1.07550   0.87181   0.97530   1.10186
    6  H   0.85063
    7  C   1.05453   1.18190   1.03109   1.10284
    8  H   0.79328
    9  H   0.83223
   10  C   1.08071   0.96661   0.98640   0.95601
   11  C   1.09524   1.08386   0.98416   1.03018
   12  H   0.82565
   13  C   1.08226   1.00328   1.07112   0.98168
   14  H   0.83171
   15  C   1.09006   1.02036   1.03868   1.01998
   16  H   0.84064
   17  C   1.07351   1.02769   1.07143   1.07342
   18  H   0.83219
   19  C   1.08985   1.07982   0.99872   0.99281
   20  H   0.84828
   21  O   1.83593   1.50377   1.75945   1.77726
   22  H   0.54972
   23  H   0.57365
   24  O   1.82454   1.64376   1.83966   1.48405
   25  H   0.57611
   26  H   0.58764
   27  O   1.84235   1.46048   1.52753   1.97452
   28  H   0.57754
   29  H   0.61731
   30  O   1.83457   1.82585   1.52837   1.66697
   31  H   0.61590
   32  H   0.58115
   33  O   1.79059   1.65738   1.55628   1.79494
   34  H   0.55388
   35  H   0.63715
   36  O   1.86616   1.48144   1.56508   1.86685
   37  H   0.58977
   38  H   0.61952
   39  O   1.85719   1.77619   1.59215   1.47991
   40  H   0.64662
   41  H   0.62321
   42  O   1.85550   1.73751   1.60347   1.69176
   43  H   0.56962
   44  H   0.58555
   45  O   1.82277   1.48815   1.82298   1.71368
   46  H   0.57212
   47  H   0.62500
   48  O   1.83844   1.68519   1.53509   1.75729
   49  H   0.56840
   50  H   0.61004
   51  O   1.80225   1.52196   1.48414   1.93840
   52  H   0.63019
   53  H   0.60981
   54  O   1.82710   1.60463   1.90681   1.46712
   55  H   0.55903
   56  H   0.63119
   57  O   1.85986   1.65105   1.57891   1.70699
   58  H   0.57375
   59  H   0.58085
   60  O   1.82418   1.86542   1.69063   1.48640
   61  H   0.58886
   62  H   0.59044
   63  O   1.84630   1.67943   1.54613   1.78468
   64  H   0.59248
   65  H   0.59208
   66  O   1.82935   1.73412   1.57728   1.61801
   67  H   0.58925
   68  H   0.63764
   69  H   0.81499
   70  H   0.82092


          SIGMA-PI BOND-ORDER MATRIX

                 S-SIGMA    P-SIGMA      P-PI     S-SIGMA    P-SIGMA      P-PI 
                  C  1       C  1       C  1       O  2       O  2       O  2
------------------------------------------------------------------------------
 S-SIGMA  C  1   0.954821
 P-SIGMA  C  1   0.000000   1.780450
   P-PI   C  1   0.000000   0.000000   1.030232
 S-SIGMA  O  2   0.019882   0.119751   0.000063   0.151945
 P-SIGMA  O  2   0.264130   0.545291   0.000892   0.000000   0.924102
   P-PI   O  2   0.006305   0.001929   0.584965   0.000000   0.000000   0.749438
 S-SIGMA  N  3   0.042762   0.180391   0.003088   0.000458   0.009842   0.012846
 P-SIGMA  N  3   0.206412   0.393268   0.001600   0.000042   0.015301   0.006901
   P-PI   N  3   0.001873   0.002068   0.415565   0.000938   0.000889   0.114912
 S-SIGMA  H  4   0.001766   0.003692   0.006924   0.000124   0.012712   0.003316
 S-SIGMA  C  5   0.000124   0.000685   0.000035   0.000103   0.000005   0.000549
 P-SIGMA  C  5   0.000544   0.014828   0.002845   0.000244   0.001717   0.001993
   P-PI   C  5   0.000194   0.000765   0.001122   0.000124   0.001627   0.002503
 S-SIGMA  H  6   0.000009   0.000574   0.003622   0.000001   0.000212   0.001806
 S-SIGMA  C  7   0.000036   0.000382   0.001429   0.000067   0.000203   0.000331
 P-SIGMA  C  7   0.000013   0.000121   0.001554   0.000144   0.000790   0.000076
   P-PI   C  7   0.000025   0.000496   0.000913   0.000065   0.002054   0.001610
 S-SIGMA  H  8   0.000623   0.001228   0.000089   0.000085   0.002132   0.000208
 S-SIGMA  H  9   0.000001   0.000003   0.000014   0.000001   0.000002   0.000030
 S-SIGMA  C 10   0.000000   0.000004   0.000069   0.000002   0.000000   0.000016
 P-SIGMA  C 10   0.000003   0.000008   0.000097   0.000006   0.000007   0.000010
   P-PI   C 10   0.000000   0.000000   0.000091   0.000001   0.000031   0.000065
 S-SIGMA  C 11   0.000000   0.000002   0.000010   0.000000   0.000000   0.000014
 P-SIGMA  C 11   0.000000   0.000000   0.000001   0.000001   0.000000   0.000002
[...]
  
  S  C   5  -0.00003    -0.00027    -0.00458    -0.00920     0.00916    -0.01525
 PX  C   5  -0.00001    -0.00004    -0.00172     0.00473    -0.03797     0.00383
 PY  C   5  -0.00000     0.00028     0.00051     0.03722     0.01328     0.01610
 PZ  C   5  -0.00005    -0.00010    -0.00641     0.05470    -0.00628     0.00624
  
  S  H   6   0.00001     0.00032     0.00980    -0.03403     0.00164     0.00604
  
  S  C   7   0.00000    -0.00016    -0.00014     0.02670    -0.00904    -0.00093
 PX  C   7   0.00000    -0.00021    -0.00035     0.00519     0.01322    -0.00845
 PY  C   7   0.00000     0.00038     0.00019     0.02177     0.00516     0.01454
 PZ  C   7   0.00001    -0.00021    -0.00014     0.01749     0.00101     0.01620
  
  S  H   8   0.00000    -0.00016    -0.00036    -0.00463     0.01540    -0.00880
  
  S  H   9  -0.00001     0.00029    -0.00023    -0.00009     0.00240     0.02590
  
  S  C  10  -0.00001     0.00043     0.00025    -0.00585     0.00095     0.00416
 PX  C  10   0.00002    -0.00103    -0.00041     0.00170     0.00081    -0.23394
 PY  C  10  -0.00002     0.00080     0.00040    -0.00282     0.00163     0.14399
 PZ  C  10  -0.00007     0.00215     0.00032     0.00827    -0.00297     0.52508
  
  S  C  11  -0.00001     0.00004     0.00041     0.00147    -0.00035    -0.00319
 PX  C  11  -0.00001     0.00036    -0.00018     0.00182     0.00057    -0.05122
 PY  C  11  -0.00001    -0.00035    -0.00037     0.00150     0.00059     0.02669
 PZ  C  11   0.00001    -0.00143    -0.00083    -0.00157     0.00069     0.12380
  
  S  H  12   0.00000    -0.00022    -0.00025     0.00062     0.00021    -0.00043
  
  S  C  13  -0.00001     0.00006     0.00005    -0.00032     0.00020     0.00664
 PX  C  13  -0.00002    -0.00008    -0.00061     0.00077     0.00021     0.06191
 PY  C  13   0.00000    -0.00014     0.00020    -0.00056     0.00005    -0.03677
 PZ  C  13   0.00002    -0.00023     0.00129    -0.00064    -0.00085    -0.14929
  
  S  H  14   0.00000    -0.00019    -0.00005     0.00041     0.00005    -0.00494
  
  S  C  15  -0.00000     0.00037    -0.00000    -0.00018     0.00003    -0.00002
 PX  C  15   0.00001    -0.00096    -0.00013    -0.00072     0.00039     0.05018
 PY  C  15  -0.00001     0.00057     0.00003     0.00069    -0.00007    -0.03644
 PZ  C  15  -0.00002     0.00258     0.00018     0.00225    -0.00056    -0.11474
  
  S  H  16   0.00001    -0.00054    -0.00001    -0.00001     0.00002    -0.00243
  
  S  C  17  -0.00006     0.00023    -0.00041     0.00045    -0.00056    -0.03598
 PX  C  17  -0.00001     0.00048     0.00025     0.00147     0.00111    -0.18143
 PY  C  17  -0.00006     0.00030    -0.00036    -0.00118     0.00043     0.15923
 PZ  C  17  -0.00006    -0.00065    -0.00084    -0.00389     0.00041     0.66645
  
  S  H  18  -0.00001    -0.00075    -0.00012     0.00005    -0.00038    -0.00023
  
  S  C  19  -0.00006     0.00040    -0.00014    -0.00038     0.00004     0.00084
 PX  C  19  -0.00004     0.00131     0.00030     0.00034    -0.00032    -0.08017
 PY  C  19  -0.00003    -0.00062    -0.00039    -0.00059     0.00041     0.07540
 PZ  C  19  -0.00006    -0.00235    -0.00112    -0.00026     0.00083     0.25586
  
  S  H  20   0.00001    -0.00092    -0.00005     0.00011    -0.00023    -0.00201
  
  S  O  21  -0.00000    -0.00000    -0.00000    -0.00004    -0.00011     0.00001
 PX  O  21  -0.00000    -0.00000    -0.00000    -0.00001     0.00005    -0.00000
 PY  O  21   0.00000     0.00000     0.00000     0.00004     0.00019    -0.00001
 PZ  O  21  -0.00000    -0.00000    -0.00000    -0.00006    -0.00014     0.00001
  
  S  H  22   0.00000    -0.00000    -0.00000     0.00010     0.00020    -0.00002
  
  S  H  23   0.00000     0.00000     0.00000     0.00021     0.00026    -0.00002
  
  S  O  24  -0.00008     0.00035    -0.00239     0.00180    -0.01937    -0.00295
 PX  O  24  -0.00009    -0.00048     0.52344    -0.00234     0.01302     0.00142
 PY  O  24  -0.00001     0.00014     0.83536     0.00169    -0.01094    -0.00148
 PZ  O  24  -0.00001    -0.00031     0.05837    -0.00298     0.03637     0.00393
  
  S  H  25   0.00007    -0.00084     0.00467    -0.00276     0.01421     0.00460
  
  S  H  26   0.00010    -0.00105     0.00270    -0.00464     0.10011     0.01288
  
  S  O  27  -0.00000     0.00000    -0.00000    -0.00000     0.00000     0.00004
 PX  O  27   0.00000     0.00000     0.00000     0.00000    -0.00000    -0.00004
 PY  O  27  -0.00000     0.00000    -0.00000    -0.00000     0.00000     0.00005
 PZ  O  27  -0.00000    -0.00000    -0.00000     0.00000     0.00000    -0.00000
  
  S  H  28   0.00000    -0.00000     0.00000     0.00000    -0.00000    -0.00011
  
  S  H  29   0.00000    -0.00000     0.00000     0.00000    -0.00000    -0.00009
  
  S  O  30   0.00418    -0.00852    -0.00061     0.00003    -0.00012    -0.00033
 PX  O  30   0.80750     0.01006     0.00081    -0.00006     0.00018     0.00042
 PY  O  30  -0.33692     0.00860     0.00065    -0.00009     0.00012     0.00035
 PZ  O  30  -0.48407     0.01076     0.00102    -0.00004     0.00024     0.00054
  
  S  H  31  -0.00005     0.03617     0.00180    -0.00014     0.00029     0.00126
  
  S  H  32  -0.00020     0.00731     0.00056    -0.00000     0.00011     0.00036
  
  S  O  33  -0.00004     0.00003    -0.00001    -0.00006     0.00001     0.00295
 PX  O  33   0.00001    -0.00005     0.00001     0.00009    -0.00001    -0.00341
 PY  O  33  -0.00004     0.00000    -0.00001    -0.00002     0.00001     0.00142
 PZ  O  33  -0.00003    -0.00004    -0.00001     0.00006    -0.00001    -0.00281
  
  S  H  34   0.00006    -0.00002     0.00002     0.00007    -0.00001    -0.00337
  
  S  H  35   0.00004    -0.00011     0.00002     0.00016    -0.00002    -0.01374
  
  S  O  36  -0.00000     0.00002    -0.00001    -0.00006    -0.00005     0.00116
 PX  O  36  -0.00000    -0.00002     0.00001     0.00010     0.00009    -0.00087
 PY  O  36  -0.00000     0.00003    -0.00001    -0.00008    -0.00006     0.00188
 PZ  O  36  -0.00000    -0.00000    -0.00000    -0.00001     0.00001    -0.00034
  
  S  H  37   0.00000    -0.00004     0.00001     0.00008     0.00005    -0.00304
  
  S  H  38   0.00000    -0.00006     0.00003     0.00027     0.00021    -0.00519
  
  S  O  39   0.00000    -0.00000     0.00000     0.00044    -0.00015    -0.00009
 PX  O  39   0.00000    -0.00000    -0.00000    -0.00010     0.00010    -0.00002
 PY  O  39   0.00000    -0.00000     0.00000     0.00068    -0.00025    -0.00013
 PZ  O  39   0.00000    -0.00000     0.00000     0.00051    -0.00019    -0.00003
  
  S  H  40  -0.00000     0.00000    -0.00000    -0.00118     0.00051     0.00019
  
  S  H  41  -0.00000     0.00000    -0.00000    -0.00045     0.00016     0.00019
  
  S  O  42   0.00000    -0.00000     0.00000     0.00044    -0.00011    -0.00032
 PX  O  42  -0.00000     0.00001    -0.00000    -0.00081     0.00021     0.00052
 PY  O  42   0.00000    -0.00001     0.00000     0.00053    -0.00014    -0.00038
 PZ  O  42   0.00000    -0.00001     0.00000     0.00048    -0.00013    -0.00030
  
  S  H  43  -0.00000     0.00002    -0.00001    -0.00205     0.00041     0.00166
  
  S  H  44  -0.00000     0.00001    -0.00001    -0.00038     0.00010     0.00050
  
  S  O  45  -0.00073    -0.00808    -0.01255     0.00081    -0.00222    -0.00826
 PX  O  45  -0.00007     0.04311     0.02073    -0.00089     0.00497    -0.00189
 PY  O  45  -0.00078     0.78346    -0.00803     0.00079    -0.00171    -0.00825
 PZ  O  45   0.00097     0.61846     0.00833    -0.00095     0.00190     0.01082
  
  S  H  46   0.00124    -0.00032     0.06269    -0.00217     0.00772     0.01455
  
  S  H  47   0.00244     0.00005     0.00947    -0.00163     0.00155     0.03730
  
  S  O  48  -0.00014    -0.00085    -0.00026    -0.00022    -0.00012    -0.00010
 PX  O  48  -0.00015     0.00072     0.00044     0.00045     0.00029     0.00014
 PY  O  48   0.00003     0.00053     0.00009    -0.00002     0.00002     0.00004
 PZ  O  48   0.00009    -0.00031     0.00027     0.00034     0.00020     0.00009
  
  S  H  49   0.00026     0.00094     0.00017     0.00011     0.00008     0.00013
  
  S  H  50   0.00005     0.00158     0.00094     0.00102     0.00035     0.00032
  
  S  O  51   0.00000    -0.00001    -0.00000     0.00335    -0.00062    -0.00071
 PX  O  51  -0.00000     0.00000    -0.00000    -0.00202     0.00031     0.00033
 PY  O  51   0.00000    -0.00001    -0.00002     0.00493    -0.00113    -0.00051
 PZ  O  51   0.00000    -0.00001    -0.00001    -0.00041    -0.00026    -0.00001
  
  S  H  52  -0.00000     0.00002    -0.00000    -0.00579     0.00075     0.00177
  
  S  H  53  -0.00000     0.00002     0.00001    -0.01199     0.00153     0.00173
  
  S  O  54   0.00000    -0.00000     0.00000     0.00046    -0.00041    -0.00002
 PX  O  54  -0.00000     0.00000    -0.00000    -0.00058     0.00060     0.00002
 PY  O  54  -0.00000     0.00000     0.00000    -0.00009    -0.00010     0.00003
 PZ  O  54   0.00000     0.00000     0.00000     0.00063    -0.00080     0.00002
  
  S  H  55  -0.00000     0.00000    -0.00001    -0.00166     0.00137    -0.00002
  
  S  H  56  -0.00000     0.00000    -0.00000    -0.00042     0.00034     0.00006
  
  S  O  57  -0.00001    -0.00013    -0.00049    -0.00182    -0.00061    -0.00014
 PX  O  57  -0.00003    -0.00010     0.00039     0.00128     0.00071     0.00004
 PY  O  57  -0.00001    -0.00011    -0.00030    -0.00348    -0.00071     0.00002
 PZ  O  57  -0.00001    -0.00017    -0.00009     0.00058     0.00083     0.00012
  
  S  H  58   0.00003     0.00015     0.00072     0.00793     0.00142     0.00024
  
  S  H  59  -0.00002     0.00016     0.00141     0.00467     0.00083     0.00028
  
  S  O  60  -0.00027    -0.00009    -0.00008     0.00000    -0.00001    -0.00023
 PX  O  60   0.00036     0.00012     0.00014    -0.00002     0.00002     0.00091
 PY  O  60  -0.00057    -0.00028    -0.00018     0.00002    -0.00004    -0.00057
 PZ  O  60  -0.00017    -0.00016    -0.00005     0.00003    -0.00003    -0.00103
  
  S  H  61   0.00100     0.00048     0.00023    -0.00004     0.00004     0.00235
  
  S  H  62   0.00016    -0.00004     0.00005     0.00003    -0.00000    -0.00121
  
  S  O  63  -0.00001     0.00025     0.02329     0.00021    -0.00134    -0.00042
 PX  O  63  -0.00001     0.00016     0.01350     0.00015    -0.00106    -0.00036
 PY  O  63  -0.00003     0.00056     0.05112     0.00064    -0.00404    -0.00125
 PZ  O  63   0.00000    -0.00006    -0.00447    -0.00003     0.00039     0.00019
  
  S  H  64   0.00001    -0.00013    -0.01431    -0.00019     0.00074     0.00021
  
  S  H  65   0.00003    -0.00129    -0.12752    -0.00080     0.00464     0.00207
  
  S  O  66  -0.00191    -0.00071    -0.00014     0.00003    -0.00002    -0.00029
 PX  O  66   0.00251     0.00093     0.00023    -0.00003     0.00006     0.00030
 PY  O  66  -0.00271    -0.00106    -0.00009     0.00003    -0.00002    -0.00019
 PZ  O  66  -0.00138    -0.00045    -0.00001    -0.00001    -0.00001    -0.00001
  
  S  H  67   0.00125     0.00072     0.00015    -0.00007     0.00002     0.00060
  
  S  H  68   0.00815     0.00255     0.00023    -0.00009     0.00004     0.00073
  
  S  H  69  -0.00000     0.00002     0.00036     0.00375     0.05527     0.00016
  
  S  H  70   0.00001    -0.00002     0.00103     0.00410    -0.00255     0.00126




    ROOT NO.   91          92          93

           -10.15670   -10.06924    -9.92351
  
  
  S  C   1   0.00025    -0.00003    -0.00006
 PX  C   1  -0.00044     0.00000     0.00039
 PY  C   1  -0.00150     0.00004     0.00122
 PZ  C   1  -0.00149    -0.00004     0.00147
  
  S  O   2  -0.00024     0.00003     0.00010
 PX  O   2  -0.00010     0.00004     0.00003
 PY  O   2   0.00001     0.00003    -0.00017
 PZ  O   2   0.00037     0.00000    -0.00042
  
  S  N   3   0.00123    -0.00000    -0.00103
 PX  N   3   0.00131     0.00000    -0.00094
 PY  N   3  -0.00133    -0.00000     0.00093
 PZ  N   3  -0.00009     0.00001     0.00012
  
  S  H   4  -0.00205    -0.00001     0.00181
  
  S  C   5  -0.00894    -0.00002     0.00761
 PX  C   5   0.00067    -0.00001    -0.00093
 PY  C   5   0.01304     0.00002    -0.01113
 PZ  C   5   0.00545    -0.00000    -0.00542
  
  S  H   6   0.00094     0.00003    -0.00134
  
  S  C   7  -0.00029     0.00002     0.00155
 PX  C   7   0.00257    -0.00006     0.00099
 PY  C   7   0.00553     0.00001    -0.00707
 PZ  C   7  -0.00274    -0.00001     0.00029
  
  S  H   8  -0.00467    -0.00006     0.00487
  
  S  H   9   0.01950     0.00002    -0.01749
  
  S  C  10   0.00829    -0.00005    -0.00968
 PX  C  10  -0.09324    -0.00007     0.07508
 PY  C  10   0.06416     0.00016    -0.05124
 PZ  C  10   0.23636     0.00020    -0.18706
  
  S  C  11   0.00690     0.00039     0.00277
 PX  C  11  -0.23287    -0.00021     0.05057
 PY  C  11   0.12075    -0.00008    -0.02626
 PZ  C  11   0.63303    -0.00060    -0.12503
  
  S  H  12   0.00422    -0.00075    -0.00145
  
  S  C  13  -0.00661     0.00001    -0.00577
 PX  C  13  -0.24031    -0.00016    -0.09677
 PY  C  13   0.15333     0.00005     0.06135
 PZ  C  13   0.55850     0.00041     0.23515
  
  S  H  14   0.00753    -0.00006     0.00531
  
  S  C  15   0.00072    -0.00001    -0.00020
 PX  C  15  -0.06152    -0.00005    -0.24998
 PY  C  15   0.04444     0.00002     0.19638
 PZ  C  15   0.14032     0.00005     0.60232
  
  S  H  16   0.00203     0.00002     0.00478
  
  S  C  17  -0.00291     0.00001     0.00265
 PX  C  17   0.03678    -0.00004    -0.04789
 PY  C  17  -0.02186     0.00001     0.03056
 PZ  C  17  -0.09950     0.00000     0.13280
  
  S  H  18   0.00068    -0.00001    -0.00061
  
  S  C  19   0.00245     0.00002    -0.00183
 PX  C  19   0.04983     0.00006    -0.18617
 PY  C  19  -0.04646    -0.00008     0.16235
 PZ  C  19  -0.15967    -0.00024     0.56791
  
  S  H  20  -0.00023     0.00000     0.00220
  
  S  O  21   0.00000     0.00000    -0.00000
 PX  O  21  -0.00000     0.00000     0.00000
 PY  O  21  -0.00001    -0.00000     0.00001
 PZ  O  21   0.00000     0.00000    -0.00000
  
  S  H  22  -0.00001     0.00000     0.00001
  
  S  H  23  -0.00001    -0.00000     0.00001
  
  S  O  24  -0.00210     0.00006     0.00090
 PX  O  24   0.00163    -0.00013    -0.00106
 PY  O  24  -0.00111     0.00005     0.00058
 PZ  O  24   0.00359    -0.00037    -0.00245
  
  S  H  25   0.00314     0.00012    -0.00142
  
  S  H  26   0.01006    -0.00075    -0.00504
  
  S  O  27  -0.00002     0.00000     0.00002
 PX  O  27   0.00002    -0.00000    -0.00002
 PY  O  27  -0.00002     0.00000     0.00002
 PZ  O  27  -0.00000    -0.00000     0.00000
  
  S  H  28   0.00005    -0.00000    -0.00004
  
  S  H  29   0.00004    -0.00000    -0.00004
  
  S  O  30   0.00006    -0.00001    -0.00017
 PX  O  30  -0.00008     0.00002     0.00022
 PY  O  30  -0.00007     0.00002     0.00020
 PZ  O  30  -0.00009     0.00002     0.00027
  
  S  H  31  -0.00025     0.00004     0.00068
  
  S  H  32  -0.00008     0.00001     0.00016
  
  S  O  33  -0.00093     0.00000     0.00116
 PX  O  33   0.00143    -0.00000    -0.00188
 PY  O  33  -0.00035     0.00000     0.00052
 PZ  O  33   0.00097    -0.00000    -0.00132
  
  S  H  34   0.00134    -0.00000    -0.00159
  
  S  H  35   0.00321    -0.00000    -0.00376
  
  S  O  36  -0.00040     0.00000     0.00037
 PX  O  36   0.00057    -0.00000    -0.00059
 PY  O  36  -0.00058     0.00000     0.00044
 PZ  O  36  -0.00009     0.00000     0.00028
  
  S  H  37   0.00086    -0.00000    -0.00066
  
  S  H  38   0.00142     0.00000    -0.00096
  
  S  O  39  -0.00006    -0.00000     0.00006
 PX  O  39  -0.00006    -0.00000     0.00004
 PY  O  39  -0.00010    -0.00000     0.00010
 PZ  O  39  -0.00004    -0.00000     0.00003
  
  S  H  40   0.00011     0.00000    -0.00013
  
  S  H  41   0.00011     0.00000    -0.00012
  
  S  O  42  -0.00021    -0.00000     0.00022
 PX  O  42   0.00037     0.00000    -0.00036
 PY  O  42  -0.00027    -0.00000     0.00027
 PZ  O  42  -0.00027    -0.00000     0.00024
  
  S  H  43   0.00083     0.00000    -0.00099
  
  S  H  44   0.00028     0.00000    -0.00033
  
  S  O  45   0.00098    -0.00026    -0.00346
 PX  O  45   0.00290     0.00046    -0.00224
 PY  O  45   0.00142    -0.00016    -0.00437
 PZ  O  45  -0.00273     0.00017     0.00600
  
  S  H  46   0.00177     0.00133     0.00436
  
  S  H  47  -0.00660     0.00016     0.01496
  
  S  O  48  -0.00001    -0.00000    -0.00000
 PX  O  48   0.00005     0.00000    -0.00003
 PY  O  48  -0.00001     0.00000     0.00002
 PZ  O  48   0.00003     0.00000    -0.00003
  
  S  H  49  -0.00001     0.00000     0.00002
  
  S  H  50   0.00005     0.00000    -0.00005
  
  S  O  51  -0.00055    -0.00000     0.00050
 PX  O  51   0.00000     0.00000    -0.00008
 PY  O  51  -0.00016    -0.00000     0.00023
 PZ  O  51  -0.00026    -0.00000     0.00017
  
  S  H  52   0.00111     0.00000    -0.00114
  
  S  H  53   0.00099     0.00000    -0.00106
  
  S  O  54  -0.00001     0.00000     0.00001
 PX  O  54   0.00002     0.00000    -0.00002
 PY  O  54   0.00003     0.00000    -0.00002
 PZ  O  54   0.00001     0.00000    -0.00001
  
  S  H  55  -0.00001    -0.00000    -0.00000
  
  S  H  56   0.00003     0.00000    -0.00004
  
  S  O  57  -0.00010    -0.00000     0.00009
 PX  O  57   0.00006     0.00000    -0.00006
 PY  O  57  -0.00001    -0.00000     0.00003
 PZ  O  57   0.00014    -0.00000    -0.00014
  
  S  H  58   0.00018     0.00000    -0.00019
  
  S  H  59   0.00024     0.00000    -0.00024
  
  S  O  60   0.00017    -0.00000    -0.00047
 PX  O  60  -0.00055     0.00000     0.00060
 PY  O  60   0.00030    -0.00000    -0.00095
 PZ  O  60   0.00045    -0.00000    -0.00062
  
  S  H  61  -0.00120     0.00000     0.00327
  
  S  H  62   0.00033     0.00000     0.00002
  
  S  O  63  -0.00126     0.00082     0.00011
 PX  O  63  -0.00025     0.63289     0.00005
 PY  O  63  -0.00256    -0.10131     0.00040
 PZ  O  63  -0.00019     0.76758    -0.00003
  
  S  H  64   0.00203    -0.00000    -0.00007
  
  S  H  65   0.00720     0.00000    -0.00081
  
  S  O  66   0.00009    -0.00000    -0.00019
 PX  O  66  -0.00009     0.00000     0.00017
 PY  O  66   0.00004    -0.00000    -0.00004
 PZ  O  66  -0.00001    -0.00000     0.00004
  
  S  H  67  -0.00019     0.00000     0.00032
  
  S  H  68  -0.00025     0.00000     0.00042
  
  S  H  69   0.00011     0.00000    -0.00009
  
  S  H  70   0.00064     0.00000    -0.00045

          BONDING CONTRIBUTION OF EACH M.O.

  1.7748  1.6667  1.9204  1.7023  1.6747  0.0006  0.0091  1.7273  0.0135  1.6538
  1.8785  1.6350  1.5287  1.7320  0.0410  1.6967  1.7058  0.0002  0.0370  1.5985
  0.0538  0.0779  1.7050  1.9984  1.6392  1.6077  1.5967  1.5917  0.0014  1.9922
  0.0000  1.9995  1.6158  1.6818  1.7042  1.7096  0.0632  1.6586  1.9966  1.7453
  1.5899  1.6576  0.0012  1.5404  1.9962  0.1118  1.6388  0.0648  1.6269  0.0028
  1.6382  1.5389  1.9889  0.0023  1.6659  1.8965  1.9910  0.0008  1.5773  1.6258
  1.5782  1.9561  1.9421  1.9462  1.9435  1.9492  1.9581  1.9847  1.9663  1.9590
  1.9251  0.0002  0.0376  0.0006  0.0132  0.0002  0.0846  0.0303  0.0738  0.0077
  0.0158  0.1010  1.1344  0.1363  0.0006  0.0113  0.1579  0.9440  0.3383  1.9610
  2.0073  0.0000  2.0026 -1.9764 -2.0269 -2.0243 -1.9456 -1.9563 -1.7439 -1.7299
 -1.7230 -1.7338 -1.7286 -1.8031 -1.6899 -1.8115 -1.7703 -1.6740 -1.7812 -1.9266
 -1.8499 -1.6837 -1.7035 -1.9703 -1.8878 -1.8309 -1.7968 -1.9487 -1.8491 -1.7766
 -1.7379 -1.6836 -1.8215 -1.9688 -1.8929 -1.7384 -1.9143 -1.8729 -1.6624 -1.8914
 -1.9426 -1.8954 -1.8739 -1.6728 -1.8118 -1.8240 -1.8867 -1.6053 -1.9727 -1.6994
 -1.9257 -1.6499 -1.7543 -1.6790 -1.6805 -1.8578 -1.6948 -1.7923 -1.6845 -1.6638
 -1.6647

           DATA FOR GRAPH WRITTEN TO DISK

 **********************
 *                    *
 * JOB ENDED NORMALLY *
 *                    *
 **********************



 TOTAL JOB TIME:             1.58 SECONDS

 == MOPAC DONE ==
