 *******************************************************************************
 ** Site#: 34139        For non-commercial use only    Version 20.070L 64BITS **
 *******************************************************************************
 ** Cite this program as: MOPAC2016, Version: 20.070L, James J. P. Stewart,   **
 ** Stewart Computational Chemistry, web: HTTP://OpenMOPAC.net. Days left: 322**
 *******************************************************************************
 **                                                                           **
 **                                MOPAC2016                                  **
 **                                                                           **
 *******************************************************************************

                              PM7 CALCULATION RESULTS

 *******************************************************************************
 *  CALCULATION DONE:                                Thu Apr 23 13:26:48 2020  *
 *  PM7        - The PM7 Hamiltonian to be used
 *  QMMM       - Generate energies and gradients for use in MM codes
 *  DIPOLE     - PRINT DIPOLE INSTEAD OF ENERGY IN TRAJECTORIES
 *  GEO-OK     - OVERRIDE INTERATOMIC DISTANCE AND OTHER SAFETY CHECKS
 *
 *
 *
 *                 CHARGE ON SYSTEM = 0
 *
 *
 *
 *  LET        - OVERRIDE SOME SAFETY CHECKS
 *  XYZ        - CARTESIAN COORDINATE SYSTEM TO BE USED
 *  FORCE      - FORCE CALCULATION SPECIFIED
 *  1SCF       - DO 1 SCF AND THEN STOP 
 *  T=         - A TIME OF      2.0 MINUTES REQUESTED
 *  DUMP=N     - RESTART FILE WRITTEN EVERY  7200.000 SECONDS
 *  CUTOFF=    - CUTOFF FOR NDDO AND DIPOLE INTERACTIONS =  9.00A
 *  AUX        - OUTPUT AUXILIARY INFORMATION
 *  GRADIENTS  - ALL GRADIENTS TO BE PRINTED
 *  VECTORS    - FINAL EIGENVECTORS TO BE PRINTED
 *  EIGEN      - CONVERT LMO's INTO EIGENVECTORS
 *  LARGE      - EXPANDED OUTPUT TO BE PRINTED
 *  AIGOUT     - IN ARC FILE, INCLUDE AB-INITIO GEOMETRY
 *  GRAPH      - GENERATE FILE FOR GRAPHICS
 *  LOCALIZE   - LOCALIZED ORBITALS TO BE PRINTED
 *  PI         - BONDS MATRIX, SPLIT INTO SIGMA-PI-DELL COMPONENTS, TO BE PRINTED
 *******************************************************************************
PM7 XYZ T=2M 1SCF LOCALIZE AIGOUT GRAPH GRAPHF LARGE DIPOLE PI FORCE CUTOFF=9.0 AUX LET GRAD QMMM GEO-OK EIGEN VECTORS CHARGE=0
 Test System

   ATOM   CHEMICAL          X               Y               Z
  NUMBER   SYMBOL      (ANGSTROMS)     (ANGSTROMS)     (ANGSTROMS)
 
     1       C        -10.66290600  *   0.77100700  *   0.65476200  *
     2       O        -10.88749900  *  -0.14041000  *   1.49800100  *
     3       N         -9.45193800  *   0.96957100  *   0.10929900  *
     4       H         -9.32792200  *   1.69226900  *  -0.61277900  *
     5       C         -8.25564900  *   0.15527000  *   0.38779900  *
     6       H         -8.23614500  *  -0.09966100  *   1.47588600  *
     7       C         -8.25647400  *  -1.16755700  *  -0.42260400  *
     8       H         -7.26922000  *  -1.66472300  *  -0.33436800  *
     9       H         -8.97629800  *  -1.88032400  *   0.04768200  *
    10       C         -8.59106600  *  -1.01152100  *  -1.88761100  *
    11       C         -9.78775900  *  -1.53748700  *  -2.37535600  *
    12       H        -10.48068500  *  -2.06548500  *  -1.70809100  *
    13       C        -10.09892600  *  -1.42908100  *  -3.71611100  *
    14       H        -11.04466300  *  -1.85845400  *  -4.10087400  *
    15       C         -9.24350300  *  -0.79432600  *  -4.58777300  *
    16       H         -9.48696500  *  -0.71717300  *  -5.67079900  *
    17       C         -7.70232200  *  -0.40603800  *  -2.76964000  *
    18       H         -6.72148400  *  -0.04128700  *  -2.44952700  *
    19       C         -8.02015800  *  -0.28825000  *  -4.12577300  *
    20       H         -7.31299400  *   0.15575100  *  -4.84168700  *
    21       O         -9.87714800  *   1.89749400  *  -2.59012200  *
    22       H         -9.57352900  *   1.21328700  *  -3.21898000  *
    23       H         -9.85584500  *   2.71455700  *  -3.15845500  *
    24       O         -7.45505500  *  -3.32414400  *  -5.04519900  *
    25       H         -7.68386800  *  -2.63240400  *  -4.41751000  *
    26       H         -8.28190200  *  -3.85310900  *  -5.14208500  *
    27       O        -10.42826300  *   2.10175400  *  -5.53958800  *
    28       H         -9.99623200  *   1.51860800  *  -6.17961800  *
    29       H        -10.04742500  *   2.98057100  *  -5.74759500  *
    30       O        -12.82711700  *  -3.93587600  *  -4.80691200  *
    31       H        -13.09919300  *  -4.83489800  *  -5.03312100  *
    32       H        -13.14463100  *  -3.79803600  *  -3.90867300  *
    33       O        -10.82102300  *  -2.47687900  *  -6.33857300  *
    34       H        -11.08264100  *  -3.26167100  *  -5.85301000  *
    35       H        -10.24875600  *  -2.81282600  *  -7.07828900  *
    36       O         -5.20929300  *   0.31432900  *  -7.40335400  *
    37       H         -5.91376400  *  -0.33141600  *  -7.14948300  *
    38       H         -5.67279300  *   1.17643200  *  -7.54060900  *
    39       O        -13.41462700  *  -1.95741600  *   1.08455400  *
    40       H        -13.25021400  *  -2.91556300  *   0.87301600  *
    41       H        -12.53877900  *  -1.62708500  *   1.31139900  *
    42       O        -10.59436300  *  -1.92400300  *   3.43528400  *
    43       H        -11.53051400  *  -1.92883800  *   3.74789000  *
    44       H        -10.58140900  *  -1.21353300  *   2.78218500  *
    45       O         -7.11390100  *  -1.53252800  *  -7.03027400  *
    46       H         -6.96561300  *  -2.04765600  *  -7.87035800  *
    47       H         -7.31505300  *  -2.17223600  *  -6.33916100  *
    48       O        -10.10441200  *   4.05447200  *  -1.07097700  *
    49       H        -10.18694700  *   4.24966400  *  -2.05856100  *
    50       H         -9.22433300  *   4.40399000  *  -0.88865400  *
    51       O        -13.04094400  *  -0.96877700  *  -6.47208500  *
    52       H        -12.67901200  *  -0.33055700  *  -7.12298100  *
    53       H        -12.27115200  *  -1.57660900  *  -6.38952600  *
    54       O         -8.76287300  *   0.48802600  *  -7.57742100  *
    55       H         -8.31634600  *   0.90408800  *  -8.37095600  *
    56       H         -8.25789900  *  -0.33319000  *  -7.41567000  *
    57       O        -11.26658700  *   0.35382400  *  -8.41889200  *
    58       H        -10.34952300  *   0.45988900  *  -8.06638600  *
    59       H        -11.08253700  *  -0.34072500  *  -9.07402000  *
    60       O         -8.54560000  *  -4.45779700  *  -0.21732000  *
    61       H         -9.02565500  *  -4.93163700  *  -0.97800600  *
    62       H         -7.70697000  *  -4.25229300  *  -0.64819600  *
    63       O         -8.07017000  *   4.73287900  *   1.07252300  *
    64       H         -7.78666200  *   3.97146000  *   0.54639900  *
    65       H         -7.20782000  *   5.24960700  *   1.21997300  *
    66       O         -7.41205600  *   3.71420400  *  -2.88378300  *
    67       H         -7.50251300  *   2.81992400  *  -2.54591500  *
    68       H         -6.94580300  *   3.59418300  *  -3.77684200  *
    69       O        -12.55562900  *   1.02170800  *  -4.31027600  *
    70       H        -11.80808100  *   1.46646200  *  -4.79968900  *
    71       H        -12.72339800  *   0.25134300  *  -4.88263600  *
    72       H        -11.47408100  *   1.44426100  *   0.37759100  *
    73       H         -7.38520900  *   0.77535400  *   0.17348700  *
 


          CARTESIAN COORDINATES 

    NO.       ATOM           X           Y           Z

     1         C        -10.6629      0.7710      0.6548
     2         O        -10.8875     -0.1404      1.4980
     3         N         -9.4519      0.9696      0.1093
     4         H         -9.3279      1.6923     -0.6128
     5         C         -8.2556      0.1553      0.3878
     6         H         -8.2361     -0.0997      1.4759
     7         C         -8.2565     -1.1676     -0.4226
     8         H         -7.2692     -1.6647     -0.3344
     9         H         -8.9763     -1.8803      0.0477
    10         C         -8.5911     -1.0115     -1.8876
    11         C         -9.7878     -1.5375     -2.3754
    12         H        -10.4807     -2.0655     -1.7081
    13         C        -10.0989     -1.4291     -3.7161
    14         H        -11.0447     -1.8585     -4.1009
    15         C         -9.2435     -0.7943     -4.5878
    16         H         -9.4870     -0.7172     -5.6708
    17         C         -7.7023     -0.4060     -2.7696
    18         H         -6.7215     -0.0413     -2.4495
    19         C         -8.0202     -0.2883     -4.1258
    20         H         -7.3130      0.1558     -4.8417
    21         O         -9.8771      1.8975     -2.5901
    22         H         -9.5735      1.2133     -3.2190
    23         H         -9.8558      2.7146     -3.1585
    24         O         -7.4551     -3.3241     -5.0452
    25         H         -7.6839     -2.6324     -4.4175
    26         H         -8.2819     -3.8531     -5.1421
    27         O        -10.4283      2.1018     -5.5396
    28         H         -9.9962      1.5186     -6.1796
    29         H        -10.0474      2.9806     -5.7476
    30         O        -12.8271     -3.9359     -4.8069
    31         H        -13.0992     -4.8349     -5.0331
    32         H        -13.1446     -3.7980     -3.9087
    33         O        -10.8210     -2.4769     -6.3386
    34         H        -11.0826     -3.2617     -5.8530
    35         H        -10.2488     -2.8128     -7.0783
    36         O         -5.2093      0.3143     -7.4034
    37         H         -5.9138     -0.3314     -7.1495
    38         H         -5.6728      1.1764     -7.5406
    39         O        -13.4146     -1.9574      1.0846
    40         H        -13.2502     -2.9156      0.8730
    41         H        -12.5388     -1.6271      1.3114
    42         O        -10.5944     -1.9240      3.4353
    43         H        -11.5305     -1.9288      3.7479
    44         H        -10.5814     -1.2135      2.7822
    45         O         -7.1139     -1.5325     -7.0303
    46         H         -6.9656     -2.0477     -7.8704
    47         H         -7.3151     -2.1722     -6.3392
    48         O        -10.1044      4.0545     -1.0710
    49         H        -10.1869      4.2497     -2.0586
    50         H         -9.2243      4.4040     -0.8887
    51         O        -13.0409     -0.9688     -6.4721
    52         H        -12.6790     -0.3306     -7.1230
    53         H        -12.2712     -1.5766     -6.3895
    54         O         -8.7629      0.4880     -7.5774
    55         H         -8.3163      0.9041     -8.3710
    56         H         -8.2579     -0.3332     -7.4157
    57         O        -11.2666      0.3538     -8.4189
    58         H        -10.3495      0.4599     -8.0664
    59         H        -11.0825     -0.3407     -9.0740
    60         O         -8.5456     -4.4578     -0.2173
    61         H         -9.0257     -4.9316     -0.9780
    62         H         -7.7070     -4.2523     -0.6482
    63         O         -8.0702      4.7329      1.0725
    64         H         -7.7867      3.9715      0.5464
    65         H         -7.2078      5.2496      1.2200
    66         O         -7.4121      3.7142     -2.8838
    67         H         -7.5025      2.8199     -2.5459
    68         H         -6.9458      3.5942     -3.7768
    69         O        -12.5556      1.0217     -4.3103
    70         H        -11.8081      1.4665     -4.7997
    71         H        -12.7234      0.2513     -4.8826
    72         H        -11.4741      1.4443      0.3776
    73         H         -7.3852      0.7754      0.1735

 General Reference for PM7:
 "Optimization of Parameters for Semiempirical Methods VI: More Modifications to the 
 NDDO Approximations and Re-optimization of Parameters", J. J. P. Stewart, J. Mol. Mod., 1:32, 19 (2013)
 http://www.springerlink.com/openurl.asp?genre=article&id=doi:10.1007/s00894-012-1667-x

           Empirical Formula: C9 H45 N O18  =    73 atoms



      MOLECULAR POINT GROUP   :   C1  


      RHF CALCULATION, NO. OF DOUBLY OCCUPIED LEVELS = 97


 -------------------------------------------------------------------------------
 PM7 XYZ T=2M 1SCF LOCALIZE AIGOUT GRAPH GRAPHF LARGE DIPOLE PI FORCE CUTOFF=9.0 AUX LET GRAD QMMM GEO-OK EIGEN VECTORS CHARGE=0
 Test System



     1SCF WAS SPECIFIED, SO BFGS WAS NOT USED                 
     SCF FIELD WAS ACHIEVED                                   


                              PM7 CALCULATION
                                                       MOPAC2016 (Version: 20.070L)
                                                       Thu Apr 23 13:26:48 2020
                                                       No. of days remaining = 322




          FINAL HEAT OF FORMATION =      -1348.45307 KCAL/MOL =   -5641.92766 KJ/MOL


          TOTAL ENERGY            =      -7232.62662 EV
          ELECTRONIC ENERGY       =     -59829.74517 EV  POINT GROUP:     C1  
          CORE-CORE REPULSION     =      52597.11855 EV
          COSMO AREA              =        497.82 SQUARE ANGSTROMS
          COSMO VOLUME            =        660.29 CUBIC ANGSTROMS

          GRADIENT NORM           =        196.60276 = 23.01061 PER ATOM
          IONIZATION POTENTIAL    =          9.933174 EV
          HOMO LUMO ENERGIES (EV) =         -9.933 -0.214
          NO. OF FILLED LEVELS    =         97
          MOLECULAR WEIGHT        =        455.4504

          MOLECULAR DIMENSIONS (Angstroms)

            Atom       Atom       Distance
            H    65    H    31    13.24789
            H    43    H    38    13.08650
            O    69    H    62     7.72559


          SCF CALCULATIONS        =          1
 
          WALL-CLOCK TIME         =          0.199 SECONDS
          COMPUTATION TIME        =          0.191 SECONDS

          LARGEST ATOMIC GRADIENTS

          Atom     Label                     Cartesian Gradients           Cartesian Coordinates       |Gradient|
                                           X          Y          Z        X          Y          Z

             2       O                  -9.749    -37.153     36.064  -10.88750   -0.14041    1.49800     52.688
             1       C                   7.679     37.833    -31.432  -10.66291    0.77101    0.65476     49.782
            63       O                 -45.789     -6.629      7.238   -8.07017    4.73288    1.07252     46.829
            60       O                   4.138     15.213     41.277   -8.54560   -4.45780   -0.21732     44.185
            21       O                 -25.865    -13.608     23.944   -9.87715    1.89749   -2.59012     37.782
            48       O                 -13.503    -11.245     33.435  -10.10441    4.05447   -1.07098     37.772
            66       O                 -14.042     14.158     30.286   -7.41206    3.71420   -2.88378     36.262
            15       C                 -23.449    -10.907     23.296   -9.24350   -0.79433   -4.58777     34.807
            33       O                 -25.759     13.730     16.795  -10.82102   -2.47688   -6.33857     33.677
            39       O                 -11.228     30.818      2.546  -13.41463   -1.95742    1.08455     32.898



       FINAL  POINT  AND  DERIVATIVES

   PARAMETER     ATOM    TYPE            VALUE        GRADIENT
      1          1  C    CARTESIAN X   -10.662906      7.679259  KCAL/ANGSTROM
      2          1  C    CARTESIAN Y     0.771007     37.832546  KCAL/ANGSTROM
      3          1  C    CARTESIAN Z     0.654762    -31.432155  KCAL/ANGSTROM
      4          2  O    CARTESIAN X   -10.887499     -9.748614  KCAL/ANGSTROM
      5          2  O    CARTESIAN Y    -0.140410    -37.152948  KCAL/ANGSTROM
      6          2  O    CARTESIAN Z     1.498001     36.064184  KCAL/ANGSTROM
      7          3  N    CARTESIAN X    -9.451938    -13.099562  KCAL/ANGSTROM
      8          3  N    CARTESIAN Y     0.969571     -8.506524  KCAL/ANGSTROM
      9          3  N    CARTESIAN Z     0.109299      4.024937  KCAL/ANGSTROM
     10          4  H    CARTESIAN X    -9.327922     15.465066  KCAL/ANGSTROM
     11          4  H    CARTESIAN Y     1.692269     -0.106840  KCAL/ANGSTROM
     12          4  H    CARTESIAN Z    -0.612779      0.827322  KCAL/ANGSTROM
     13          5  C    CARTESIAN X    -8.255649     18.932142  KCAL/ANGSTROM
     14          5  C    CARTESIAN Y     0.155270     18.601683  KCAL/ANGSTROM
     15          5  C    CARTESIAN Z     0.387799     -0.758379  KCAL/ANGSTROM
     16          6  H    CARTESIAN X    -8.236145      1.480883  KCAL/ANGSTROM
     17          6  H    CARTESIAN Y    -0.099661      0.713116  KCAL/ANGSTROM
     18          6  H    CARTESIAN Z     1.475886     -0.749588  KCAL/ANGSTROM
     19          7  C    CARTESIAN X    -8.256474      0.623343  KCAL/ANGSTROM
     20          7  C    CARTESIAN Y    -1.167557     -2.876512  KCAL/ANGSTROM
     21          7  C    CARTESIAN Z    -0.422604     10.034611  KCAL/ANGSTROM
     22          8  H    CARTESIAN X    -7.269220      0.202604  KCAL/ANGSTROM
     23          8  H    CARTESIAN Y    -1.664723     -1.156555  KCAL/ANGSTROM
     24          8  H    CARTESIAN Z    -0.334368     -4.140751  KCAL/ANGSTROM
     25          9  H    CARTESIAN X    -8.976298     -0.314168  KCAL/ANGSTROM
     26          9  H    CARTESIAN Y    -1.880324     -1.723452  KCAL/ANGSTROM
     27          9  H    CARTESIAN Z     0.047682     -2.191452  KCAL/ANGSTROM
     28         10  C    CARTESIAN X    -8.591066     -1.335700  KCAL/ANGSTROM
     29         10  C    CARTESIAN Y    -1.011521     -0.115723  KCAL/ANGSTROM
     30         10  C    CARTESIAN Z    -1.887611    -15.321659  KCAL/ANGSTROM
     31         11  C    CARTESIAN X    -9.787759      0.381514  KCAL/ANGSTROM
     32         11  C    CARTESIAN Y    -1.537487      8.396433  KCAL/ANGSTROM
     33         11  C    CARTESIAN Z    -2.375356    -14.721699  KCAL/ANGSTROM
     34         12  H    CARTESIAN X   -10.480685     -2.162209  KCAL/ANGSTROM
     35         12  H    CARTESIAN Y    -2.065485     -5.661543  KCAL/ANGSTROM
     36         12  H    CARTESIAN Z    -1.708091     -0.623289  KCAL/ANGSTROM
     37         13  C    CARTESIAN X   -10.098926     22.193050  KCAL/ANGSTROM
     38         13  C    CARTESIAN Y    -1.429081     10.449127  KCAL/ANGSTROM
     39         13  C    CARTESIAN Z    -3.716111      8.520062  KCAL/ANGSTROM
     40         14  H    CARTESIAN X   -11.044663     -2.889243  KCAL/ANGSTROM
     41         14  H    CARTESIAN Y    -1.858454     -5.130950  KCAL/ANGSTROM
     42         14  H    CARTESIAN Z    -4.100874     -5.076515  KCAL/ANGSTROM
     43         15  C    CARTESIAN X    -9.243503    -23.449239  KCAL/ANGSTROM
     44         15  C    CARTESIAN Y    -0.794326    -10.906979  KCAL/ANGSTROM
     45         15  C    CARTESIAN Z    -4.587773     23.295840  KCAL/ANGSTROM
     46         16  H    CARTESIAN X    -9.486965      2.455186  KCAL/ANGSTROM
     47         16  H    CARTESIAN Y    -0.717173     -0.570455  KCAL/ANGSTROM
     48         16  H    CARTESIAN Z    -5.670799    -12.028358  KCAL/ANGSTROM
     49         17  C    CARTESIAN X    -7.702322    -11.866868  KCAL/ANGSTROM
     50         17  C    CARTESIAN Y    -0.406038     -6.435481  KCAL/ANGSTROM
     51         17  C    CARTESIAN Z    -2.769640     12.987066  KCAL/ANGSTROM
     52         18  H    CARTESIAN X    -6.721484      4.850163  KCAL/ANGSTROM
     53         18  H    CARTESIAN Y    -0.041287      1.592296  KCAL/ANGSTROM
     54         18  H    CARTESIAN Z    -2.449527     -5.645139  KCAL/ANGSTROM
     55         19  C    CARTESIAN X    -8.020158      5.143995  KCAL/ANGSTROM
     56         19  C    CARTESIAN Y    -0.288250      3.795597  KCAL/ANGSTROM
     57         19  C    CARTESIAN Z    -4.125773      1.826956  KCAL/ANGSTROM
     58         20  H    CARTESIAN X    -7.312994      3.360973  KCAL/ANGSTROM
     59         20  H    CARTESIAN Y     0.155751      1.285216  KCAL/ANGSTROM
     60         20  H    CARTESIAN Z    -4.841687     -5.907780  KCAL/ANGSTROM
     61         21  O    CARTESIAN X    -9.877148    -25.864748  KCAL/ANGSTROM
     62         21  O    CARTESIAN Y     1.897494    -13.607770  KCAL/ANGSTROM
     63         21  O    CARTESIAN Z    -2.590122     23.943961  KCAL/ANGSTROM
     64         22  H    CARTESIAN X    -9.573529     14.472913  KCAL/ANGSTROM
     65         22  H    CARTESIAN Y     1.213287      0.086982  KCAL/ANGSTROM
     66         22  H    CARTESIAN Z    -3.218980     -8.620288  KCAL/ANGSTROM
     67         23  H    CARTESIAN X    -9.855845      9.167779  KCAL/ANGSTROM
     68         23  H    CARTESIAN Y     2.714557     16.303687  KCAL/ANGSTROM
     69         23  H    CARTESIAN Z    -3.158455    -14.915486  KCAL/ANGSTROM
     70         24  O    CARTESIAN X    -7.455055     17.510662  KCAL/ANGSTROM
     71         24  O    CARTESIAN Y    -3.324144      1.766631  KCAL/ANGSTROM
     72         24  O    CARTESIAN Z    -5.045199     12.651296  KCAL/ANGSTROM
     73         25  H    CARTESIAN X    -7.683868     -2.126437  KCAL/ANGSTROM
     74         25  H    CARTESIAN Y    -2.632404     -1.512525  KCAL/ANGSTROM
     75         25  H    CARTESIAN Z    -4.417510     -6.812865  KCAL/ANGSTROM
     76         26  H    CARTESIAN X    -8.281902    -11.868531  KCAL/ANGSTROM
     77         26  H    CARTESIAN Y    -3.853109     -5.569487  KCAL/ANGSTROM
     78         26  H    CARTESIAN Z    -5.142085     -3.531187  KCAL/ANGSTROM
     79         27  O    CARTESIAN X   -10.428263    -28.229245  KCAL/ANGSTROM
     80         27  O    CARTESIAN Y     2.101754    -12.237091  KCAL/ANGSTROM
     81         27  O    CARTESIAN Z    -5.539588      8.506017  KCAL/ANGSTROM
     82         28  H    CARTESIAN X    -9.996232      7.478688  KCAL/ANGSTROM
     83         28  H    CARTESIAN Y     1.518608      4.699458  KCAL/ANGSTROM
     84         28  H    CARTESIAN Z    -6.179618     -3.418414  KCAL/ANGSTROM
     85         29  H    CARTESIAN X   -10.047425     14.288806  KCAL/ANGSTROM
     86         29  H    CARTESIAN Y     2.980571      5.965518  KCAL/ANGSTROM
     87         29  H    CARTESIAN Z    -5.747595     -4.208047  KCAL/ANGSTROM
     88         30  O    CARTESIAN X   -12.827117     -6.159891  KCAL/ANGSTROM
     89         30  O    CARTESIAN Y    -3.935876     15.072330  KCAL/ANGSTROM
     90         30  O    CARTESIAN Z    -4.806912     -3.114707  KCAL/ANGSTROM
     91         31  H    CARTESIAN X   -13.099193      0.955713  KCAL/ANGSTROM
     92         31  H    CARTESIAN Y    -4.834898     -7.440017  KCAL/ANGSTROM
     93         31  H    CARTESIAN Z    -5.033121      0.444219  KCAL/ANGSTROM
     94         32  H    CARTESIAN X   -13.144631      0.685533  KCAL/ANGSTROM
     95         32  H    CARTESIAN Y    -3.798036     -5.496673  KCAL/ANGSTROM
     96         32  H    CARTESIAN Z    -3.908673      2.813313  KCAL/ANGSTROM
     97         33  O    CARTESIAN X   -10.821023    -25.759202  KCAL/ANGSTROM
     98         33  O    CARTESIAN Y    -2.476879     13.730195  KCAL/ANGSTROM
     99         33  O    CARTESIAN Z    -6.338573     16.794904  KCAL/ANGSTROM
    100         34  H    CARTESIAN X   -11.082641     11.484681  KCAL/ANGSTROM
    101         34  H    CARTESIAN Y    -3.261671     -2.750314  KCAL/ANGSTROM
    102         34  H    CARTESIAN Z    -5.853010     -3.562539  KCAL/ANGSTROM
    103         35  H    CARTESIAN X   -10.248756     17.093767  KCAL/ANGSTROM
    104         35  H    CARTESIAN Y    -2.812826     -8.701777  KCAL/ANGSTROM
    105         35  H    CARTESIAN Z    -7.078289    -11.606981  KCAL/ANGSTROM
    106         36  O    CARTESIAN X    -5.209293     29.350721  KCAL/ANGSTROM
    107         36  O    CARTESIAN Y     0.314329    -13.963175  KCAL/ANGSTROM
    108         36  O    CARTESIAN Z    -7.403354     -1.171386  KCAL/ANGSTROM
    109         37  H    CARTESIAN X    -5.913764    -16.794636  KCAL/ANGSTROM
    110         37  H    CARTESIAN Y    -0.331416     -4.153299  KCAL/ANGSTROM
    111         37  H    CARTESIAN Z    -7.149483      2.379117  KCAL/ANGSTROM
    112         38  H    CARTESIAN X    -5.672793    -15.232132  KCAL/ANGSTROM
    113         38  H    CARTESIAN Y     1.176432     18.176870  KCAL/ANGSTROM
    114         38  H    CARTESIAN Z    -7.540609     -3.114683  KCAL/ANGSTROM
    115         39  O    CARTESIAN X   -13.414627    -11.227981  KCAL/ANGSTROM
    116         39  O    CARTESIAN Y    -1.957416     30.817554  KCAL/ANGSTROM
    117         39  O    CARTESIAN Z     1.084554      2.546074  KCAL/ANGSTROM
    118         40  H    CARTESIAN X   -13.250214      7.156955  KCAL/ANGSTROM
    119         40  H    CARTESIAN Y    -2.915563    -21.968811  KCAL/ANGSTROM
    120         40  H    CARTESIAN Z     0.873016     -4.308370  KCAL/ANGSTROM
    121         41  H    CARTESIAN X   -12.538779      2.805091  KCAL/ANGSTROM
    122         41  H    CARTESIAN Y    -1.627085    -11.068355  KCAL/ANGSTROM
    123         41  H    CARTESIAN Z     1.311399      1.948646  KCAL/ANGSTROM
    124         42  O    CARTESIAN X   -10.594363     20.911726  KCAL/ANGSTROM
    125         42  O    CARTESIAN Y    -1.924003      2.051622  KCAL/ANGSTROM
    126         42  O    CARTESIAN Z     3.435284     -9.383001  KCAL/ANGSTROM
    127         43  H    CARTESIAN X   -11.530514    -18.476619  KCAL/ANGSTROM
    128         43  H    CARTESIAN Y    -1.928838      0.293670  KCAL/ANGSTROM
    129         43  H    CARTESIAN Z     3.747890      4.024844  KCAL/ANGSTROM
    130         44  H    CARTESIAN X   -10.581409     -4.955874  KCAL/ANGSTROM
    131         44  H    CARTESIAN Y    -1.213533      2.855408  KCAL/ANGSTROM
    132         44  H    CARTESIAN Z     2.782185      0.257831  KCAL/ANGSTROM
    133         45  O    CARTESIAN X    -7.113901      9.599814  KCAL/ANGSTROM
    134         45  O    CARTESIAN Y    -1.532528     11.483885  KCAL/ANGSTROM
    135         45  O    CARTESIAN Z    -7.030274     22.803457  KCAL/ANGSTROM
    136         46  H    CARTESIAN X    -6.965613     -3.284084  KCAL/ANGSTROM
    137         46  H    CARTESIAN Y    -2.047656     -5.869152  KCAL/ANGSTROM
    138         46  H    CARTESIAN Z    -7.870358    -17.489016  KCAL/ANGSTROM
    139         47  H    CARTESIAN X    -7.315053     -8.295282  KCAL/ANGSTROM
    140         47  H    CARTESIAN Y    -2.172236      3.262902  KCAL/ANGSTROM
    141         47  H    CARTESIAN Z    -6.339161     -6.673396  KCAL/ANGSTROM
    142         48  O    CARTESIAN X   -10.104412    -13.503425  KCAL/ANGSTROM
    143         48  O    CARTESIAN Y     4.054472    -11.245425  KCAL/ANGSTROM
    144         48  O    CARTESIAN Z    -1.070977     33.435030  KCAL/ANGSTROM
    145         49  H    CARTESIAN X   -10.186947      5.990482  KCAL/ANGSTROM
    146         49  H    CARTESIAN Y     4.249664      8.457489  KCAL/ANGSTROM
    147         49  H    CARTESIAN Z    -2.058561    -28.665407  KCAL/ANGSTROM
    148         50  H    CARTESIAN X    -9.224333      7.886483  KCAL/ANGSTROM
    149         50  H    CARTESIAN Y     4.403990      0.296619  KCAL/ANGSTROM
    150         50  H    CARTESIAN Z    -0.888654     -8.967200  KCAL/ANGSTROM
    151         51  O    CARTESIAN X   -13.040944    -22.357804  KCAL/ANGSTROM
    152         51  O    CARTESIAN Y    -0.968777     -1.529220  KCAL/ANGSTROM
    153         51  O    CARTESIAN Z    -6.472085     10.476186  KCAL/ANGSTROM
    154         52  H    CARTESIAN X   -12.679012      7.913576  KCAL/ANGSTROM
    155         52  H    CARTESIAN Y    -0.330557      1.205968  KCAL/ANGSTROM
    156         52  H    CARTESIAN Z    -7.122981     -4.976096  KCAL/ANGSTROM
    157         53  H    CARTESIAN X   -12.271152     12.390994  KCAL/ANGSTROM
    158         53  H    CARTESIAN Y    -1.576609     -2.115445  KCAL/ANGSTROM
    159         53  H    CARTESIAN Z    -6.389526     -3.790921  KCAL/ANGSTROM
    160         54  O    CARTESIAN X    -8.762873    -14.828975  KCAL/ANGSTROM
    161         54  O    CARTESIAN Y     0.488026     -9.711687  KCAL/ANGSTROM
    162         54  O    CARTESIAN Z    -7.577421     23.495917  KCAL/ANGSTROM
    163         55  H    CARTESIAN X    -8.316346      9.884703  KCAL/ANGSTROM
    164         55  H    CARTESIAN Y     0.904088      5.990270  KCAL/ANGSTROM
    165         55  H    CARTESIAN Z    -8.370956    -17.713961  KCAL/ANGSTROM
    166         56  H    CARTESIAN X    -8.257899      1.014918  KCAL/ANGSTROM
    167         56  H    CARTESIAN Y    -0.333190     -4.921833  KCAL/ANGSTROM
    168         56  H    CARTESIAN Z    -7.415670     -7.178098  KCAL/ANGSTROM
    169         57  O    CARTESIAN X   -11.266587    -18.922325  KCAL/ANGSTROM
    170         57  O    CARTESIAN Y     0.353824     12.932452  KCAL/ANGSTROM
    171         57  O    CARTESIAN Z    -8.418892      9.777829  KCAL/ANGSTROM
    172         58  H    CARTESIAN X   -10.349523     10.483574  KCAL/ANGSTROM
    173         58  H    CARTESIAN Y     0.459889     -3.903094  KCAL/ANGSTROM
    174         58  H    CARTESIAN Z    -8.066386     -7.655795  KCAL/ANGSTROM
    175         59  H    CARTESIAN X   -11.082537     15.432319  KCAL/ANGSTROM
    176         59  H    CARTESIAN Y    -0.340725     -5.832113  KCAL/ANGSTROM
    177         59  H    CARTESIAN Z    -9.074020     -1.454687  KCAL/ANGSTROM
    178         60  O    CARTESIAN X    -8.545600      4.137795  KCAL/ANGSTROM
    179         60  O    CARTESIAN Y    -4.457797     15.212601  KCAL/ANGSTROM
    180         60  O    CARTESIAN Z    -0.217320     41.277216  KCAL/ANGSTROM
    181         61  H    CARTESIAN X    -9.025655     -6.552980  KCAL/ANGSTROM
    182         61  H    CARTESIAN Y    -4.931637    -12.783005  KCAL/ANGSTROM
    183         61  H    CARTESIAN Z    -0.978006    -28.915441  KCAL/ANGSTROM
    184         62  H    CARTESIAN X    -7.706970      2.095796  KCAL/ANGSTROM
    185         62  H    CARTESIAN Y    -4.252293     -2.692088  KCAL/ANGSTROM
    186         62  H    CARTESIAN Z    -0.648196    -11.311791  KCAL/ANGSTROM
    187         63  O    CARTESIAN X    -8.070170    -45.788736  KCAL/ANGSTROM
    188         63  O    CARTESIAN Y     4.732879     -6.628977  KCAL/ANGSTROM
    189         63  O    CARTESIAN Z     1.072523      7.238230  KCAL/ANGSTROM
    190         64  H    CARTESIAN X    -7.786662     12.520237  KCAL/ANGSTROM
    191         64  H    CARTESIAN Y     3.971460     -3.906202  KCAL/ANGSTROM
    192         64  H    CARTESIAN Z     0.546399     -6.929325  KCAL/ANGSTROM
    193         65  H    CARTESIAN X    -7.207820     30.775752  KCAL/ANGSTROM
    194         65  H    CARTESIAN Y     5.249607     10.224678  KCAL/ANGSTROM
    195         65  H    CARTESIAN Z     1.219973     -0.052454  KCAL/ANGSTROM
    196         66  O    CARTESIAN X    -7.412056    -14.041828  KCAL/ANGSTROM
    197         66  O    CARTESIAN Y     3.714204     14.158403  KCAL/ANGSTROM
    198         66  O    CARTESIAN Z    -2.883783     30.286435  KCAL/ANGSTROM
    199         67  H    CARTESIAN X    -7.502513      6.540959  KCAL/ANGSTROM
    200         67  H    CARTESIAN Y     2.819924     -3.782118  KCAL/ANGSTROM
    201         67  H    CARTESIAN Z    -2.545915     -3.193302  KCAL/ANGSTROM
    202         68  H    CARTESIAN X    -6.945803     11.450237  KCAL/ANGSTROM
    203         68  H    CARTESIAN Y     3.594183     -8.866208  KCAL/ANGSTROM
    204         68  H    CARTESIAN Z    -3.776842    -27.125025  KCAL/ANGSTROM
    205         69  O    CARTESIAN X   -12.555629    -16.960419  KCAL/ANGSTROM
    206         69  O    CARTESIAN Y     1.021708      0.151806  KCAL/ANGSTROM
    207         69  O    CARTESIAN Z    -4.310276     23.864859  KCAL/ANGSTROM
    208         70  H    CARTESIAN X   -11.808081     16.914728  KCAL/ANGSTROM
    209         70  H    CARTESIAN Y     1.466462      5.320530  KCAL/ANGSTROM
    210         70  H    CARTESIAN Z    -4.799689    -16.839100  KCAL/ANGSTROM
    211         71  H    CARTESIAN X   -12.723398      5.988511  KCAL/ANGSTROM
    212         71  H    CARTESIAN Y     0.251343     -4.537148  KCAL/ANGSTROM
    213         71  H    CARTESIAN Z    -4.882636     -7.227582  KCAL/ANGSTROM
    214         72  H    CARTESIAN X   -11.474081      1.062235  KCAL/ANGSTROM
    215         72  H    CARTESIAN Y     1.444261      0.020656  KCAL/ANGSTROM
    216         72  H    CARTESIAN Z     0.377591      1.932649  KCAL/ANGSTROM
    217         73  H    CARTESIAN X    -7.385209    -12.108826  KCAL/ANGSTROM
    218         73  H    CARTESIAN Y     0.775354     -6.060464  KCAL/ANGSTROM
    219         73  H    CARTESIAN Z     0.173487      4.049387  KCAL/ANGSTROM




   ATOM   CHEMICAL          X               Y               Z
  NUMBER   SYMBOL      (ANGSTROMS)     (ANGSTROMS)     (ANGSTROMS)
 
     1       C        -10.66290600  *   0.77100700  *   0.65476200  *
     2       O        -10.88749900  *  -0.14041000  *   1.49800100  *
     3       N         -9.45193800  *   0.96957100  *   0.10929900  *
     4       H         -9.32792200  *   1.69226900  *  -0.61277900  *
     5       C         -8.25564900  *   0.15527000  *   0.38779900  *
     6       H         -8.23614500  *  -0.09966100  *   1.47588600  *
     7       C         -8.25647400  *  -1.16755700  *  -0.42260400  *
     8       H         -7.26922000  *  -1.66472300  *  -0.33436800  *
     9       H         -8.97629800  *  -1.88032400  *   0.04768200  *
    10       C         -8.59106600  *  -1.01152100  *  -1.88761100  *
    11       C         -9.78775900  *  -1.53748700  *  -2.37535600  *
    12       H        -10.48068500  *  -2.06548500  *  -1.70809100  *
    13       C        -10.09892600  *  -1.42908100  *  -3.71611100  *
    14       H        -11.04466300  *  -1.85845400  *  -4.10087400  *
    15       C         -9.24350300  *  -0.79432600  *  -4.58777300  *
    16       H         -9.48696500  *  -0.71717300  *  -5.67079900  *
    17       C         -7.70232200  *  -0.40603800  *  -2.76964000  *
    18       H         -6.72148400  *  -0.04128700  *  -2.44952700  *
    19       C         -8.02015800  *  -0.28825000  *  -4.12577300  *
    20       H         -7.31299400  *   0.15575100  *  -4.84168700  *
    21       O         -9.87714800  *   1.89749400  *  -2.59012200  *
    22       H         -9.57352900  *   1.21328700  *  -3.21898000  *
    23       H         -9.85584500  *   2.71455700  *  -3.15845500  *
    24       O         -7.45505500  *  -3.32414400  *  -5.04519900  *
    25       H         -7.68386800  *  -2.63240400  *  -4.41751000  *
    26       H         -8.28190200  *  -3.85310900  *  -5.14208500  *
    27       O        -10.42826300  *   2.10175400  *  -5.53958800  *
    28       H         -9.99623200  *   1.51860800  *  -6.17961800  *
    29       H        -10.04742500  *   2.98057100  *  -5.74759500  *
    30       O        -12.82711700  *  -3.93587600  *  -4.80691200  *
    31       H        -13.09919300  *  -4.83489800  *  -5.03312100  *
    32       H        -13.14463100  *  -3.79803600  *  -3.90867300  *
    33       O        -10.82102300  *  -2.47687900  *  -6.33857300  *
    34       H        -11.08264100  *  -3.26167100  *  -5.85301000  *
    35       H        -10.24875600  *  -2.81282600  *  -7.07828900  *
    36       O         -5.20929300  *   0.31432900  *  -7.40335400  *
    37       H         -5.91376400  *  -0.33141600  *  -7.14948300  *
    38       H         -5.67279300  *   1.17643200  *  -7.54060900  *
    39       O        -13.41462700  *  -1.95741600  *   1.08455400  *
    40       H        -13.25021400  *  -2.91556300  *   0.87301600  *
    41       H        -12.53877900  *  -1.62708500  *   1.31139900  *
    42       O        -10.59436300  *  -1.92400300  *   3.43528400  *
    43       H        -11.53051400  *  -1.92883800  *   3.74789000  *
    44       H        -10.58140900  *  -1.21353300  *   2.78218500  *
    45       O         -7.11390100  *  -1.53252800  *  -7.03027400  *
    46       H         -6.96561300  *  -2.04765600  *  -7.87035800  *
    47       H         -7.31505300  *  -2.17223600  *  -6.33916100  *
    48       O        -10.10441200  *   4.05447200  *  -1.07097700  *
    49       H        -10.18694700  *   4.24966400  *  -2.05856100  *
    50       H         -9.22433300  *   4.40399000  *  -0.88865400  *
    51       O        -13.04094400  *  -0.96877700  *  -6.47208500  *
    52       H        -12.67901200  *  -0.33055700  *  -7.12298100  *
    53       H        -12.27115200  *  -1.57660900  *  -6.38952600  *
    54       O         -8.76287300  *   0.48802600  *  -7.57742100  *
    55       H         -8.31634600  *   0.90408800  *  -8.37095600  *
    56       H         -8.25789900  *  -0.33319000  *  -7.41567000  *
    57       O        -11.26658700  *   0.35382400  *  -8.41889200  *
    58       H        -10.34952300  *   0.45988900  *  -8.06638600  *
    59       H        -11.08253700  *  -0.34072500  *  -9.07402000  *
    60       O         -8.54560000  *  -4.45779700  *  -0.21732000  *
    61       H         -9.02565500  *  -4.93163700  *  -0.97800600  *
    62       H         -7.70697000  *  -4.25229300  *  -0.64819600  *
    63       O         -8.07017000  *   4.73287900  *   1.07252300  *
    64       H         -7.78666200  *   3.97146000  *   0.54639900  *
    65       H         -7.20782000  *   5.24960700  *   1.21997300  *
    66       O         -7.41205600  *   3.71420400  *  -2.88378300  *
    67       H         -7.50251300  *   2.81992400  *  -2.54591500  *
    68       H         -6.94580300  *   3.59418300  *  -3.77684200  *
    69       O        -12.55562900  *   1.02170800  *  -4.31027600  *
    70       H        -11.80808100  *   1.46646200  *  -4.79968900  *
    71       H        -12.72339800  *   0.25134300  *  -4.88263600  *
    72       H        -11.47408100  *   1.44426100  *   0.37759100  *
    73       H         -7.38520900  *   0.77535400  *   0.17348700  *

                             CARTESIAN COORDINATES

   1    C      -10.662906000     0.771007000     0.654762000
   2    O      -10.887499000    -0.140410000     1.498001000
   3    N       -9.451938000     0.969571000     0.109299000
   4    H       -9.327922000     1.692269000    -0.612779000
   5    C       -8.255649000     0.155270000     0.387799000
   6    H       -8.236145000    -0.099661000     1.475886000
   7    C       -8.256474000    -1.167557000    -0.422604000
   8    H       -7.269220000    -1.664723000    -0.334368000
   9    H       -8.976298000    -1.880324000     0.047682000
  10    C       -8.591066000    -1.011521000    -1.887611000
  11    C       -9.787759000    -1.537487000    -2.375356000
  12    H      -10.480685000    -2.065485000    -1.708091000
  13    C      -10.098926000    -1.429081000    -3.716111000
  14    H      -11.044663000    -1.858454000    -4.100874000
  15    C       -9.243503000    -0.794326000    -4.587773000
  16    H       -9.486965000    -0.717173000    -5.670799000
  17    C       -7.702322000    -0.406038000    -2.769640000
  18    H       -6.721484000    -0.041287000    -2.449527000
  19    C       -8.020158000    -0.288250000    -4.125773000
  20    H       -7.312994000     0.155751000    -4.841687000
  21    O       -9.877148000     1.897494000    -2.590122000
  22    H       -9.573529000     1.213287000    -3.218980000
  23    H       -9.855845000     2.714557000    -3.158455000
  24    O       -7.455055000    -3.324144000    -5.045199000
  25    H       -7.683868000    -2.632404000    -4.417510000
  26    H       -8.281902000    -3.853109000    -5.142085000
  27    O      -10.428263000     2.101754000    -5.539588000
  28    H       -9.996232000     1.518608000    -6.179618000
  29    H      -10.047425000     2.980571000    -5.747595000
  30    O      -12.827117000    -3.935876000    -4.806912000
  31    H      -13.099193000    -4.834898000    -5.033121000
  32    H      -13.144631000    -3.798036000    -3.908673000
  33    O      -10.821023000    -2.476879000    -6.338573000
  34    H      -11.082641000    -3.261671000    -5.853010000
  35    H      -10.248756000    -2.812826000    -7.078289000
  36    O       -5.209293000     0.314329000    -7.403354000
  37    H       -5.913764000    -0.331416000    -7.149483000
  38    H       -5.672793000     1.176432000    -7.540609000
  39    O      -13.414627000    -1.957416000     1.084554000
  40    H      -13.250214000    -2.915563000     0.873016000
  41    H      -12.538779000    -1.627085000     1.311399000
  42    O      -10.594363000    -1.924003000     3.435284000
  43    H      -11.530514000    -1.928838000     3.747890000
  44    H      -10.581409000    -1.213533000     2.782185000
  45    O       -7.113901000    -1.532528000    -7.030274000
  46    H       -6.965613000    -2.047656000    -7.870358000
  47    H       -7.315053000    -2.172236000    -6.339161000
  48    O      -10.104412000     4.054472000    -1.070977000
  49    H      -10.186947000     4.249664000    -2.058561000
  50    H       -9.224333000     4.403990000    -0.888654000
  51    O      -13.040944000    -0.968777000    -6.472085000
  52    H      -12.679012000    -0.330557000    -7.122981000
  53    H      -12.271152000    -1.576609000    -6.389526000
  54    O       -8.762873000     0.488026000    -7.577421000
  55    H       -8.316346000     0.904088000    -8.370956000
  56    H       -8.257899000    -0.333190000    -7.415670000
  57    O      -11.266587000     0.353824000    -8.418892000
  58    H      -10.349523000     0.459889000    -8.066386000
  59    H      -11.082537000    -0.340725000    -9.074020000
  60    O       -8.545600000    -4.457797000    -0.217320000
  61    H       -9.025655000    -4.931637000    -0.978006000
  62    H       -7.706970000    -4.252293000    -0.648196000
  63    O       -8.070170000     4.732879000     1.072523000
  64    H       -7.786662000     3.971460000     0.546399000
  65    H       -7.207820000     5.249607000     1.219973000
  66    O       -7.412056000     3.714204000    -2.883783000
  67    H       -7.502513000     2.819924000    -2.545915000
  68    H       -6.945803000     3.594183000    -3.776842000
  69    O      -12.555629000     1.021708000    -4.310276000
  70    H      -11.808081000     1.466462000    -4.799689000
  71    H      -12.723398000     0.251343000    -4.882636000
  72    H      -11.474081000     1.444261000     0.377591000
  73    H       -7.385209000     0.775354000     0.173487000


           Empirical Formula: C9 H45 N O18  =    73 atoms



      MOLECULAR POINT GROUP   :   C1  


                EIGENVECTORS  


   Root No.      89        90        91        92        93        94        95        96

                89 A      90 A      91 A      92 A      93 A      94 A      95 A      96 A   

               -11.984   -11.937   -11.909   -11.879   -11.861   -11.628   -10.813   -10.265
  
  S   C    1   -0.0027   -0.0015    0.0030    0.0010   -0.0189    0.0366   -0.0055    0.0005
  Px  C    1    0.0098    0.0013   -0.0034   -0.0008   -0.0012   -0.0947    0.0177   -0.0018
  Py  C    1    0.0008   -0.0013    0.0029    0.0011   -0.0208    0.0564    0.0905   -0.0041
  Pz  C    1    0.0045    0.0011   -0.0022   -0.0007    0.0095   -0.0270    0.1110   -0.0059
  S   O    2    0.0021   -0.0001    0.0002    0.0002   -0.0059    0.0061   -0.0007    0.0001
  Px  O    2   -0.0979   -0.0236    0.0526    0.0143   -0.1575    0.7922   -0.0623    0.0015
  Py  O    2    0.0791    0.0144   -0.0274   -0.0085    0.0665   -0.2446   -0.3531    0.0094
  Pz  O    2    0.0711    0.0090   -0.0145   -0.0044   -0.0026    0.0155   -0.4055    0.0127
  S   N    3    0.0243    0.0046   -0.0101   -0.0025    0.0204   -0.0714    0.0167   -0.0007
  Px  N    3   -0.0203   -0.0051    0.0102    0.0037   -0.0409    0.2071    0.1921   -0.0058
  Py  N    3   -0.0962   -0.0126    0.0217    0.0057    0.0062   -0.0223    0.4522   -0.0211
  Pz  N    3   -0.0159   -0.0019   -0.0006    0.0015   -0.0079   -0.1464    0.5152   -0.0165
  S   H    4   -0.0383   -0.0048    0.0112    0.0020    0.0095    0.0723   -0.0145    0.0004
  S   C    5   -0.0000    0.0002    0.0014   -0.0004    0.0063    0.0020   -0.0211   -0.0040
  Px  C    5    0.0132    0.0007   -0.0052   -0.0004   -0.0233   -0.1676   -0.0473   -0.0050
  Py  C    5   -0.0108   -0.0055    0.0053    0.0040   -0.0799   -0.0211   -0.1151    0.0054
  Pz  C    5   -0.1087   -0.0099    0.0206    0.0032    0.0810    0.0404   -0.1324    0.0132
  S   H    6   -0.0881   -0.0075    0.0179    0.0020    0.0800    0.0578   -0.1186    0.0093
  S   C    7   -0.0530   -0.0054    0.0119    0.0033    0.0003   -0.0157    0.0727   -0.0031
  Px  C    7    0.1305    0.0217   -0.0398   -0.0103    0.0763    0.1639    0.0181    0.0133
  Py  C    7   -0.0377   -0.0010    0.0084   -0.0018    0.1049    0.0242    0.2086   -0.0139
  Pz  C    7    0.2265    0.0223   -0.0515   -0.0083   -0.1386   -0.0403    0.1174   -0.0037
  S   H    8    0.0963    0.0147   -0.0293   -0.0057    0.0103    0.0992   -0.0163    0.0107
  S   H    9    0.0000   -0.0078    0.0067    0.0047   -0.1222   -0.1117   -0.0314   -0.0018
  S   C   10   -0.0146   -0.0028    0.0013    0.0000    0.0197    0.0018   -0.0057   -0.0010
  Px  C   10   -0.1984   -0.0383    0.0689    0.0137   -0.0460   -0.0553   -0.0895   -0.0120
  Py  C   10   -0.0588   -0.0193    0.0142    0.0064   -0.0489   -0.0534    0.1024    0.0244
  Pz  C   10   -0.2030   -0.0169    0.0433    0.0074    0.1209    0.0058   -0.0175    0.0053
  S   C   11   -0.0030   -0.0014    0.0024    0.0008    0.0050    0.0127    0.0152   -0.0019
  Px  C   11    0.1906    0.0365   -0.0604   -0.0137    0.0464    0.0583    0.0205    0.2344
  Py  C   11    0.0757    0.0146   -0.0291   -0.0049    0.0349    0.0281    0.0335   -0.4151
  Pz  C   11    0.2275    0.0293   -0.0570   -0.0127   -0.0709    0.0267    0.0403   -0.0820
  S   H   12   -0.0143   -0.0114    0.0161    0.0032   -0.0750   -0.0256    0.0040   -0.0063
  S   C   13    0.0185    0.0030   -0.0102   -0.0022    0.0016    0.0002   -0.0043    0.0020
  Px  C   13   -0.2125   -0.0400    0.0746    0.0154   -0.0369   -0.0590    0.0202    0.2363
  Py  C   13   -0.0431   -0.0126    0.0282    0.0047   -0.0413   -0.0055   -0.0799   -0.4327
  Pz  C   13   -0.2115   -0.0257    0.0547    0.0121    0.0754   -0.0128   -0.0410   -0.0958
  S   H   14    0.2348    0.0419   -0.0776   -0.0165    0.0171    0.0474    0.0203   -0.0060
  S   C   15   -0.0328   -0.0059    0.0082    0.0024    0.0094   -0.0004   -0.0028   -0.0017
  Px  C   15    0.1973    0.0410   -0.0605   -0.0137    0.0328    0.0297    0.0714    0.0248
  Py  C   15    0.0787    0.0181   -0.0309   -0.0060    0.0303    0.0444   -0.1101   -0.0383
  Pz  C   15    0.2497    0.0373   -0.0553   -0.0150   -0.0884    0.0116   -0.0115   -0.0098
  S   H   16   -0.2301   -0.0339    0.0550    0.0129    0.0656   -0.0120   -0.0136   -0.0016
  S   C   17   -0.0043    0.0004    0.0005    0.0007   -0.0123   -0.0124   -0.0004    0.0023
  Px  C   17    0.1816    0.0382   -0.0487   -0.0132    0.0484    0.0580   -0.0041   -0.2095
  Py  C   17    0.0508    0.0123   -0.0340   -0.0040    0.0405    0.0256    0.0533    0.4701
  Pz  C   17    0.1974    0.0152   -0.0432   -0.0074   -0.1134   -0.0250    0.0189    0.0964
  S   H   18    0.2024    0.0369   -0.0581   -0.0128    0.0096    0.0375    0.0181   -0.0001
  S   C   19    0.0130   -0.0025   -0.0030   -0.0005   -0.0014    0.0023   -0.0026    0.0017
  Px  C   19   -0.2189   -0.0498    0.0744    0.0157   -0.0304   -0.0519    0.0146   -0.1998
  Py  C   19   -0.0430   -0.0189    0.0063    0.0049   -0.0369   -0.0076   -0.0634    0.4293
  Pz  C   19   -0.2057   -0.0130    0.0407    0.0080    0.0984    0.0125   -0.0250    0.0775
  S   H   20   -0.0138   -0.0204    0.0173    0.0045   -0.0809   -0.0356   -0.0022   -0.0031
  S   O   21    0.0057    0.0009   -0.0018   -0.0004   -0.0008   -0.0117    0.0066   -0.0016
  Px  O   21    0.0214    0.0048    0.0131   -0.0006   -0.0019   -0.0261    0.0082   -0.0382
  Py  O   21    0.0078    0.0013    0.0035    0.0000   -0.0011    0.0017   -0.0090    0.0163
  Pz  O   21    0.0259    0.0053    0.0013   -0.0014   -0.0033   -0.0221    0.0002    0.0247
  S   H   22   -0.0035   -0.0005    0.0010    0.0002    0.0007    0.0065   -0.0050    0.0037
  S   H   23   -0.0031   -0.0005    0.0012    0.0002    0.0003    0.0091   -0.0075    0.0027
  S   O   24   -0.0003   -0.0010    0.0003    0.0002    0.0002   -0.0004    0.0003    0.0031
  Px  O   24   -0.0033    0.0027    0.0019    0.0004    0.0008   -0.0035    0.0117   -0.0056
  Py  O   24    0.0057   -0.0075   -0.0022    0.0006   -0.0011    0.0037   -0.0122    0.0242
  Pz  O   24   -0.0038    0.0094   -0.0013   -0.0008   -0.0000    0.0006   -0.0048    0.0149
  S   H   25    0.0003    0.0004   -0.0003   -0.0001   -0.0001    0.0004   -0.0001   -0.0036
  S   H   26    0.0002    0.0009   -0.0001   -0.0001   -0.0001    0.0000    0.0005   -0.0040
  S   O   27   -0.0036    0.0068   -0.0015   -0.0013    0.0004   -0.0006    0.0010    0.0001
  Px  O   27    0.0544   -0.0388   -0.0589    0.0010   -0.0121   -0.0105    0.0102   -0.0049
  Py  O   27   -0.0177    0.0120    0.0174   -0.0015    0.0049    0.0021   -0.0044    0.0006
  Pz  O   27    0.0131    0.0206   -0.0529   -0.0104   -0.0032   -0.0098    0.0045   -0.0017
  S   H   28    0.0052   -0.0049   -0.0002    0.0009   -0.0011    0.0005    0.0000    0.0000
  S   H   29   -0.0005   -0.0021    0.0028    0.0004    0.0006    0.0003   -0.0014   -0.0002
  S   O   30   -0.0018   -0.0004    0.0010    0.0002   -0.0011   -0.0008   -0.0004   -0.0002
  Px  O   30   -0.0104   -0.0026    0.0040   -0.0001   -0.0032   -0.0024   -0.0009   -0.0008
  Py  O   30    0.0009    0.0003   -0.0001    0.0003    0.0001   -0.0001   -0.0001    0.0003
  Pz  O   30   -0.0107   -0.0020    0.0032    0.0005   -0.0005   -0.0016   -0.0006   -0.0005
  S   H   31    0.0039    0.0007   -0.0015   -0.0004    0.0008    0.0010    0.0005    0.0002
  S   H   32   -0.0017   -0.0002    0.0002    0.0000    0.0006    0.0000    0.0001    0.0002
  S   O   33    0.0079   -0.0003   -0.0003   -0.0030   -0.0048   -0.0009   -0.0013   -0.0020
  Px  O   33    0.1534    0.0330   -0.0261    0.0202   -0.0530    0.0007   -0.0109   -0.0164
  Py  O   33    0.0452    0.0051   -0.0092   -0.0048   -0.0112    0.0019    0.0010    0.0031
  Pz  O   33    0.0774    0.0158   -0.0077    0.0108   -0.0380   -0.0049   -0.0110   -0.0161
  S   H   34   -0.0194   -0.0023    0.0046    0.0017    0.0038   -0.0014   -0.0003    0.0001
  S   H   35    0.0094    0.0025   -0.0040    0.0017    0.0019    0.0024    0.0020    0.0027
  S   O   36   -0.0035    0.0041    0.0003   -0.0004   -0.0000   -0.0003    0.0000    0.0000
  Px  O   36   -0.0243    0.0280    0.0017   -0.0024    0.0029   -0.0019    0.0009   -0.0021
  Py  O   36   -0.0072    0.0028    0.0006    0.0002    0.0039    0.0002    0.0005   -0.0010
  Pz  O   36    0.0009    0.0041   -0.0025   -0.0009    0.0105    0.0030   -0.0001    0.0007
  S   H   37    0.0026   -0.0025   -0.0003    0.0002    0.0003    0.0003    0.0000   -0.0001
  S   H   38    0.0007   -0.0014   -0.0000    0.0002    0.0003    0.0001    0.0000   -0.0001
  S   O   39   -0.0000   -0.0000   -0.0000    0.0000   -0.0000    0.0001   -0.0013    0.0001
  Px  O   39   -0.0009   -0.0004    0.0015    0.0003   -0.0050    0.0349   -0.0233    0.0008
  Py  O   39   -0.0002   -0.0001    0.0003    0.0001   -0.0010    0.0051   -0.0037    0.0001
  Pz  O   39   -0.0005   -0.0002    0.0004    0.0001   -0.0016    0.0058   -0.0034    0.0000
  S   H   40    0.0001    0.0000   -0.0001   -0.0000    0.0004   -0.0019    0.0015   -0.0001
  S   H   41    0.0001    0.0000   -0.0001   -0.0000    0.0003   -0.0023    0.0035   -0.0002
  S   O   42   -0.0000   -0.0001    0.0003    0.0001   -0.0016    0.0042    0.0000   -0.0000
  Px  O   42   -0.0010   -0.0006    0.0012    0.0004   -0.0065    0.0192   -0.0046    0.0002
  Py  O   42    0.0023    0.0012   -0.0033   -0.0008    0.0130   -0.0646    0.0250   -0.0010
  Pz  O   42   -0.0064   -0.0020    0.0042    0.0012   -0.0173    0.0585   -0.0108    0.0006
  S   H   43   -0.0007   -0.0001    0.0002    0.0001   -0.0004    0.0030   -0.0011    0.0001
  S   H   44    0.0002    0.0001   -0.0002   -0.0001    0.0011   -0.0013   -0.0014    0.0001
  S   O   45    0.0020   -0.0073    0.0001    0.0007    0.0013    0.0008   -0.0004    0.0020
  Px  O   45   -0.0819    0.0607    0.0073   -0.0018    0.0226   -0.0009    0.0017   -0.0008
  Py  O   45    0.0051   -0.0221    0.0016    0.0023    0.0009    0.0000    0.0023   -0.0040
  Pz  O   45   -0.0131    0.0137   -0.0001   -0.0008    0.0061    0.0017   -0.0023    0.0062
  S   H   46   -0.0032    0.0050    0.0005   -0.0004   -0.0014   -0.0012    0.0009   -0.0031
  S   H   47    0.0003    0.0056   -0.0007   -0.0007   -0.0003    0.0001   -0.0002   -0.0003
  S   O   48    0.0015    0.0002   -0.0004   -0.0001    0.0003   -0.0042   -0.0004   -0.0001
  Px  O   48    0.0137    0.0014   -0.0054   -0.0007   -0.0009   -0.0177    0.0000   -0.0017
  Py  O   48   -0.0311   -0.0033    0.0116    0.0017    0.0009    0.0439   -0.0013    0.0027
  Pz  O   48   -0.0057   -0.0005    0.0028    0.0003    0.0005    0.0084   -0.0030    0.0028
  S   H   49   -0.0012   -0.0002    0.0003    0.0001   -0.0002    0.0027    0.0010   -0.0001
  S   H   50   -0.0005   -0.0001    0.0002    0.0000   -0.0003    0.0024    0.0001    0.0004
  S   O   51   -0.0048   -0.0091    0.0027   -0.0243    0.0013    0.0002    0.0001    0.0000
  Px  O   51   -0.0140    0.0382    0.0287    0.1075   -0.0110   -0.0040   -0.0029   -0.0023
  Py  O   51   -0.0767    0.0173    0.0598    0.0546    0.0086   -0.0016    0.0017    0.0023
  Pz  O   51   -0.0918   -0.0378    0.0852   -0.0873   -0.0035   -0.0038    0.0000    0.0012
  S   H   52    0.0020    0.0069   -0.0013    0.0172    0.0003    0.0001    0.0001    0.0000
  S   H   53    0.0029    0.0027   -0.0020    0.0086   -0.0018   -0.0004   -0.0001    0.0003
  S   O   54    0.0151   -0.0083   -0.0022    0.0024   -0.0041    0.0003    0.0009   -0.0001
  Px  O   54   -0.1137    0.5845   -0.0435   -0.0805    0.0263    0.0056   -0.0002    0.0007
  Py  O   54   -0.0814    0.4265   -0.0304   -0.0604    0.0167    0.0018    0.0006   -0.0020
  Pz  O   54   -0.0739    0.5561   -0.0480   -0.0667    0.0148    0.0053    0.0020   -0.0008
  S   H   55   -0.0182    0.0028    0.0037   -0.0033    0.0048   -0.0007   -0.0011    0.0000
  S   H   56   -0.0005    0.0144   -0.0018   -0.0010    0.0004    0.0005   -0.0001    0.0000
  S   O   57    0.0075   -0.0514    0.0041    0.0117   -0.0011   -0.0004   -0.0001    0.0000
  Px  O   57   -0.0404    0.3240   -0.0356    0.1321    0.0161    0.0028    0.0008    0.0001
  Py  O   57    0.0191    0.0474   -0.0350    0.6925    0.0285   -0.0008   -0.0002    0.0001
  Pz  O   57   -0.0192   -0.0433    0.0331   -0.6773   -0.0273    0.0009    0.0004    0.0000
  S   H   58   -0.0050    0.0419   -0.0038   -0.0076    0.0007    0.0004    0.0001    0.0000
  S   H   59   -0.0020    0.0132   -0.0008   -0.0033    0.0002    0.0001   -0.0000   -0.0000
  S   O   60   -0.0002    0.0003   -0.0002   -0.0001    0.0017    0.0027    0.0008    0.0001
  Px  O   60   -0.0496    0.0177   -0.0007    0.0133   -0.3277   -0.0380   -0.0043    0.0013
  Py  O   60    0.1048   -0.0432    0.0047   -0.0309    0.7775    0.0843    0.0225   -0.0040
  Pz  O   60   -0.0355    0.0158   -0.0021    0.0109   -0.2766   -0.0262   -0.0106    0.0051
  S   H   61    0.0011   -0.0001   -0.0002    0.0000   -0.0025   -0.0017   -0.0015    0.0000
  S   H   62   -0.0011   -0.0003    0.0004    0.0001    0.0001   -0.0015    0.0005   -0.0001
  S   O   63    0.0001    0.0000   -0.0000   -0.0000   -0.0000   -0.0002   -0.0002   -0.0000
  Px  O   63    0.0004    0.0001   -0.0001   -0.0000    0.0005    0.0004   -0.0009    0.0001
  Py  O   63   -0.0008   -0.0001    0.0002    0.0001   -0.0007   -0.0002    0.0017   -0.0001
  Pz  O   63   -0.0008   -0.0001    0.0003    0.0001   -0.0005    0.0011    0.0011    0.0001
  S   H   64    0.0000    0.0000   -0.0000   -0.0000    0.0000   -0.0001    0.0005   -0.0000
  S   H   65   -0.0002   -0.0000    0.0001    0.0000   -0.0000    0.0003    0.0002    0.0000
  S   O   66    0.0007    0.0001   -0.0001   -0.0000   -0.0001   -0.0000    0.0000   -0.0002
  Px  O   66   -0.0027   -0.0005    0.0018    0.0002    0.0002    0.0031   -0.0012   -0.0000
  Py  O   66    0.0054    0.0007   -0.0007   -0.0002   -0.0011    0.0016   -0.0008    0.0105
  Pz  O   66   -0.0011   -0.0003    0.0008    0.0001   -0.0004    0.0012   -0.0006    0.0004
  S   H   67   -0.0006   -0.0001    0.0001    0.0000    0.0001   -0.0003    0.0001    0.0007
  S   H   68   -0.0002   -0.0000    0.0001    0.0000    0.0000    0.0002   -0.0001    0.0004
  S   O   69   -0.0043    0.0024    0.0064   -0.0010    0.0006    0.0004   -0.0003   -0.0001
  Px  O   69    0.1819    0.0726    0.6213    0.0224   -0.0049   -0.0159    0.0068    0.0139
  Py  O   69   -0.1413   -0.0700   -0.4960   -0.0199    0.0020    0.0113   -0.0024   -0.0129
  Pz  O   69    0.1137    0.0750    0.5207    0.0108    0.0010   -0.0076   -0.0006    0.0029
  S   H   70    0.0032   -0.0020   -0.0017    0.0003   -0.0005   -0.0004    0.0003   -0.0001
  S   H   71    0.0007   -0.0008   -0.0049    0.0007   -0.0003   -0.0002    0.0000    0.0004
  S   H   72   -0.0232   -0.0065    0.0146    0.0043   -0.0529    0.2652    0.0215    0.0007
  S   H   73    0.0232    0.0000   -0.0039    0.0008   -0.0613   -0.1149   -0.0807   -0.0024


   Root No.      97        98        99       100       101       102       103       104

                97 A      98 A      99 A     100 A     101 A     102 A     103 A     104 A   

                -9.933    -0.214    -0.123    -0.049     1.307     2.170     2.860     3.032
  
  S   C    1   -0.0010   -0.0048   -0.0013    0.0131   -0.3774   -0.0302    0.3891   -0.0824
  Px  C    1    0.0117    0.0138    0.1168    0.1805   -0.2834   -0.0119   -0.1276    0.0831
  Py  C    1    0.0255    0.0424    0.2800    0.3979   -0.0522    0.0102   -0.2940   -0.0645
  Pz  C    1    0.0318    0.0537    0.3332    0.4645    0.1859    0.0172    0.2943    0.0222
  S   O    2    0.0003    0.0000    0.0008    0.0013   -0.0072    0.0026   -0.1916   -0.0030
  Px  O    2   -0.0160   -0.0074   -0.0625   -0.0955    0.1191    0.0062   -0.0799   -0.0205
  Py  O    2   -0.0496   -0.0231   -0.1519   -0.2146    0.0244    0.0035   -0.3278    0.0148
  Pz  O    2   -0.0666   -0.0286   -0.1790   -0.2481   -0.0803   -0.0145    0.2990   -0.0032
  S   N    3    0.0014    0.0059   -0.0092   -0.0381    0.4369    0.0200    0.0444   -0.0177
  Px  N    3    0.0171   -0.0062   -0.0593   -0.0896   -0.0546   -0.0214    0.1557   -0.0051
  Py  N    3    0.0895   -0.0211   -0.1541   -0.2205   -0.1575   -0.0167   -0.0743   -0.0386
  Pz  N    3    0.0751   -0.0238   -0.1777   -0.2618    0.0723   -0.0135    0.0169    0.0403
  S   H    4    0.0058   -0.0013    0.0167    0.0339   -0.3177   -0.0236    0.0774    0.0681
  S   C    5    0.0493    0.0277    0.0508    0.0014   -0.1712   -0.0670   -0.0850   -0.0134
  Px  C    5   -0.0070    0.0054   -0.0105   -0.0282    0.4358    0.0190    0.1876    0.0112
  Py  C    5   -0.1176   -0.0468   -0.0712    0.0436   -0.2718    0.0958   -0.1392   -0.0113
  Pz  C    5   -0.1095   -0.0305   -0.0524    0.0102    0.0970    0.0730    0.0176    0.0160
  S   H    6   -0.0474   -0.0051    0.0197    0.0461   -0.0347    0.0042   -0.0057   -0.0195
  S   C    7    0.0042   -0.0159   -0.0426   -0.0286   -0.0189    0.0363   -0.0327   -0.0066
  Px  C    7   -0.0815   -0.0083   -0.0050    0.0062   -0.0017   -0.0061    0.0231    0.0044
  Py  C    7    0.1361   -0.0161   -0.0670   -0.0622   -0.0290    0.0799   -0.0354    0.0004
  Pz  C    7    0.0364   -0.0075   -0.0376   -0.0337    0.0124    0.0318    0.0090    0.0195
  S   H    8   -0.1197   -0.0330   -0.0404    0.0537   -0.0758    0.0527   -0.0402   -0.0032
  S   H    9   -0.0147   -0.0086   -0.0124    0.0041    0.0144    0.0204    0.0119   -0.0033
  S   C   10   -0.0024    0.0054   -0.0005   -0.0049    0.0314   -0.0041    0.0203   -0.0131
  Px  C   10    0.2407    0.1261    0.1746   -0.1413    0.0003   -0.1570   -0.0002    0.0041
  Py  C   10   -0.4648   -0.2626   -0.3500    0.2767    0.0137    0.3356    0.0181   -0.0003
  Pz  C   10   -0.0911   -0.0532   -0.0706    0.0485    0.0525    0.0653    0.0414    0.0332
  S   C   11   -0.0029   -0.0082    0.0020   -0.0039   -0.0041    0.0172   -0.0046   -0.0112
  Px  C   11    0.1523   -0.2662    0.0099    0.0109   -0.0077    0.1954    0.0119    0.0169
  Py  C   11   -0.2918    0.4789   -0.0303   -0.0260    0.0057   -0.3486   -0.0129   -0.0020
  Pz  C   11   -0.0667    0.1060   -0.0146   -0.0008    0.0041   -0.0890    0.0013    0.0236
  S   H   12   -0.0038    0.0061   -0.0040    0.0026   -0.0053   -0.0034   -0.0013    0.0025
  S   C   13    0.0011    0.0079   -0.0080    0.0046    0.0069   -0.0190    0.0039   -0.0196
  Px  C   13   -0.0999    0.1221   -0.1987    0.1299    0.0156   -0.2115   -0.0036    0.0281
  Py  C   13    0.1921   -0.2194    0.3611   -0.2366   -0.0263    0.3816    0.0092    0.0142
  Pz  C   13    0.0319   -0.0380    0.0760   -0.0507    0.0034    0.0675    0.0123    0.0364
  S   H   14    0.0036   -0.0085    0.0060   -0.0046   -0.0027    0.0103    0.0017    0.0396
  S   C   15    0.0044   -0.0026    0.0033   -0.0021    0.0031    0.0037    0.0006   -0.0569
  Px  C   15   -0.2446    0.1479    0.1552   -0.1275   -0.0172    0.1824    0.0068    0.0135
  Py  C   15    0.4716   -0.2872   -0.3123    0.2537    0.0364   -0.3763   -0.0090   -0.0055
  Pz  C   15    0.0991   -0.0599   -0.0565    0.0471    0.0079   -0.0712    0.0023    0.0807
  S   H   16   -0.0003    0.0001   -0.0034    0.0022    0.0017   -0.0060    0.0048    0.0747
  S   C   17   -0.0030   -0.0017    0.0042   -0.0023    0.0029   -0.0093   -0.0045   -0.0142
  Px  C   17    0.1133    0.1106   -0.1769    0.1092   -0.0039    0.1493    0.0102    0.0014
  Py  C   17   -0.2466   -0.2468    0.3914   -0.2460    0.0080   -0.3250   -0.0140   -0.0193
  Pz  C   17   -0.0484   -0.0466    0.0795   -0.0494    0.0061   -0.0680    0.0040    0.0293
  S   H   18   -0.0002    0.0018   -0.0068    0.0055   -0.0045    0.0082   -0.0049    0.0034
  S   C   19    0.0060    0.0045   -0.0021    0.0000    0.0055    0.0073    0.0040   -0.0235
  Px  C   19   -0.1247   -0.2379    0.0329    0.0047    0.0116   -0.1577    0.0009   -0.0168
  Py  C   19    0.2642    0.5222   -0.0710   -0.0118   -0.0203    0.3426    0.0084    0.0020
  Pz  C   19    0.0464    0.0984   -0.0142   -0.0028    0.0036    0.0636    0.0125    0.0473
  S   H   20    0.0020   -0.0075   -0.0002    0.0016   -0.0006   -0.0084   -0.0004    0.0369
  S   O   21    0.0015   -0.0020   -0.0004   -0.0059    0.0374    0.0040   -0.0115   -0.0819
  Px  O   21    0.0008   -0.0016   -0.0023   -0.0034    0.0229    0.0024   -0.0068   -0.0350
  Py  O   21    0.0112    0.0036   -0.0025    0.0016    0.0061    0.0014   -0.0029   -0.0239
  Pz  O   21    0.0289    0.0067   -0.0035    0.0037   -0.0186   -0.0039    0.0133    0.1272
  S   H   22    0.0060    0.0071   -0.0019    0.0087   -0.0496   -0.0058    0.0190    0.1459
  S   H   23   -0.0050    0.0006    0.0018    0.0081   -0.0560   -0.0070    0.0206    0.1612
  S   O   24    0.0024    0.0035   -0.0048    0.0029    0.0008    0.0015   -0.0017   -0.1252
  Px  O   24   -0.0362   -0.0001    0.0071   -0.0049   -0.0012   -0.0006    0.0022    0.1625
  Py  O   24    0.0402    0.0079   -0.0096    0.0058    0.0009    0.0002   -0.0009   -0.0575
  Pz  O   24    0.0170    0.0058   -0.0043    0.0023    0.0007    0.0017   -0.0006   -0.0480
  S   H   25   -0.0042   -0.0088    0.0097   -0.0057   -0.0016   -0.0030    0.0028    0.2079
  S   H   26   -0.0037   -0.0017    0.0041   -0.0026   -0.0009   -0.0027    0.0029    0.2194
  S   O   27   -0.0030    0.0025    0.0036   -0.0034    0.0040    0.0067   -0.0041   -0.0891
  Px  O   27   -0.0195    0.0017    0.0057   -0.0048    0.0037    0.0073   -0.0035   -0.0772
  Py  O   27    0.0121   -0.0022   -0.0033    0.0025    0.0014   -0.0026   -0.0006    0.0037
  Pz  O   27   -0.0036   -0.0020   -0.0037    0.0027   -0.0000   -0.0067    0.0029    0.0887
  S   H   28    0.0001   -0.0032   -0.0059    0.0053   -0.0050   -0.0121    0.0067    0.1654
  S   H   29    0.0049   -0.0031   -0.0044    0.0041   -0.0052   -0.0090    0.0061    0.1258
  S   O   30    0.0003   -0.0003    0.0002   -0.0001    0.0002    0.0003   -0.0010   -0.0520
  Px  O   30    0.0006   -0.0002    0.0001   -0.0000   -0.0001   -0.0000    0.0006    0.0307
  Py  O   30   -0.0000    0.0002   -0.0002    0.0001   -0.0001   -0.0003    0.0008    0.0463
  Pz  O   30   -0.0000   -0.0000    0.0002   -0.0001    0.0001    0.0002   -0.0008   -0.0397
  S   H   31   -0.0002    0.0004   -0.0003    0.0001   -0.0002   -0.0004    0.0016    0.0903
  S   H   32   -0.0003    0.0004   -0.0003    0.0002   -0.0002   -0.0004    0.0018    0.0903
  S   O   33    0.0035   -0.0035    0.0005    0.0001    0.0005    0.0004   -0.0015   -0.0861
  Px  O   33    0.0253   -0.0050   -0.0012    0.0014    0.0003   -0.0015   -0.0003   -0.0169
  Py  O   33   -0.0002    0.0040   -0.0022    0.0011   -0.0004   -0.0025    0.0018    0.1111
  Pz  O   33    0.0186   -0.0033    0.0017   -0.0009   -0.0000    0.0012    0.0005    0.0259
  S   H   34   -0.0021    0.0048   -0.0011    0.0003   -0.0006   -0.0018    0.0024    0.1410
  S   H   35   -0.0027    0.0045   -0.0005   -0.0002   -0.0008   -0.0002    0.0025    0.1487
  S   O   36    0.0001    0.0008   -0.0008    0.0005    0.0002    0.0008   -0.0011   -0.0729
  Px  O   36   -0.0038   -0.0018    0.0019   -0.0011   -0.0004   -0.0016    0.0019    0.1323
  Py  O   36   -0.0020   -0.0008    0.0009   -0.0006   -0.0001   -0.0003    0.0003    0.0219
  Pz  O   36    0.0008    0.0005   -0.0004    0.0002    0.0001    0.0003   -0.0003   -0.0223
  S   H   37   -0.0004   -0.0019    0.0019   -0.0011   -0.0004   -0.0019    0.0024    0.1688
  S   H   38   -0.0003   -0.0006    0.0006   -0.0004   -0.0002   -0.0011    0.0015    0.1017
  S   O   39   -0.0003   -0.0007   -0.0040   -0.0060    0.0055    0.0011   -0.0985   -0.0004
  Px  O   39   -0.0030   -0.0016   -0.0097   -0.0145    0.0116    0.0020   -0.1633   -0.0004
  Py  O   39   -0.0006   -0.0001   -0.0009   -0.0012   -0.0002   -0.0003    0.0477    0.0003
  Pz  O   39   -0.0006   -0.0003   -0.0019   -0.0028    0.0021    0.0003   -0.0158    0.0001
  S   H   40    0.0003    0.0005    0.0031    0.0048   -0.0055   -0.0014    0.1567    0.0008
  S   H   41    0.0008    0.0017    0.0108    0.0162   -0.0147   -0.0026    0.2189    0.0006
  S   O   42    0.0004    0.0007    0.0037    0.0047    0.0093    0.0021   -0.1225    0.0047
  Px  O   42   -0.0010   -0.0004   -0.0019   -0.0024   -0.0078   -0.0018    0.1184   -0.0041
  Py  O   42    0.0050    0.0015    0.0079    0.0103    0.0156    0.0032   -0.1617    0.0061
  Pz  O   42   -0.0032   -0.0011   -0.0057   -0.0073   -0.0120   -0.0024    0.1133   -0.0043
  S   H   43   -0.0005   -0.0005   -0.0026   -0.0032   -0.0095   -0.0024    0.1705   -0.0062
  S   H   44   -0.0008   -0.0018   -0.0098   -0.0129   -0.0225   -0.0051    0.2801   -0.0112
  S   O   45    0.0030    0.0028   -0.0043    0.0027    0.0006    0.0012   -0.0025   -0.1618
  Px  O   45   -0.0083    0.0003    0.0021   -0.0015   -0.0003    0.0007    0.0006    0.0261
  Py  O   45   -0.0095   -0.0029    0.0064   -0.0042   -0.0007   -0.0001    0.0024    0.1671
  Pz  O   45    0.0097    0.0023   -0.0039    0.0024    0.0002   -0.0004    0.0001    0.0036
  S   H   46   -0.0047   -0.0037    0.0047   -0.0029   -0.0007   -0.0021    0.0034    0.2339
  S   H   47   -0.0008   -0.0039    0.0075   -0.0048   -0.0010   -0.0009    0.0040    0.2714
  S   O   48   -0.0003   -0.0001   -0.0005   -0.0013    0.0158    0.0020   -0.0051   -0.0532
  Px  O   48   -0.0016   -0.0001   -0.0005   -0.0013    0.0220    0.0026   -0.0071   -0.0641
  Py  O   48    0.0027    0.0000    0.0004    0.0009   -0.0016    0.0005   -0.0025   -0.0337
  Pz  O   48    0.0008    0.0004    0.0004    0.0018   -0.0172   -0.0024    0.0066    0.0624
  S   H   49    0.0003    0.0003    0.0007    0.0021   -0.0255   -0.0036    0.0095    0.1027
  S   H   50    0.0003    0.0001    0.0004    0.0012   -0.0225   -0.0032    0.0085    0.0960
  S   O   51    0.0001    0.0000   -0.0001    0.0001    0.0004   -0.0000   -0.0013   -0.0580
  Px  O   51    0.0034   -0.0003   -0.0003    0.0003    0.0007   -0.0001   -0.0022   -0.1011
  Py  O   51   -0.0031    0.0010    0.0000   -0.0002    0.0001    0.0004   -0.0002    0.0029
  Pz  O   51   -0.0010    0.0003   -0.0003    0.0002   -0.0000   -0.0005    0.0007    0.0350
  S   H   52   -0.0001   -0.0003    0.0001   -0.0000   -0.0005   -0.0004    0.0022    0.0951
  S   H   53   -0.0005    0.0006    0.0003   -0.0003   -0.0007    0.0004    0.0023    0.1141
  S   O   54   -0.0008    0.0008    0.0001   -0.0002    0.0006    0.0026   -0.0028   -0.1272
  Px  O   54    0.0020    0.0005   -0.0015    0.0010    0.0004    0.0012   -0.0023   -0.1215
  Py  O   54   -0.0046   -0.0005    0.0022   -0.0015   -0.0002   -0.0004    0.0018    0.0989
  Pz  O   54   -0.0027   -0.0000    0.0004   -0.0003   -0.0001   -0.0009    0.0015    0.0729
  S   H   55    0.0008   -0.0008   -0.0007    0.0007   -0.0007   -0.0040    0.0041    0.1821
  S   H   56    0.0002   -0.0011    0.0014   -0.0008   -0.0010   -0.0031    0.0048    0.2390
  S   O   57   -0.0000    0.0002    0.0002   -0.0002    0.0003    0.0013   -0.0015   -0.0657
  Px  O   57   -0.0003    0.0006    0.0005   -0.0005    0.0006    0.0027   -0.0027   -0.1168
  Py  O   57   -0.0000   -0.0000   -0.0001    0.0000   -0.0001   -0.0005    0.0008    0.0384
  Pz  O   57   -0.0002    0.0002    0.0002   -0.0002    0.0001    0.0004   -0.0002   -0.0073
  S   H   58   -0.0000   -0.0005   -0.0004    0.0004   -0.0007   -0.0029    0.0034    0.1463
  S   H   59    0.0000   -0.0002   -0.0002    0.0002   -0.0004   -0.0014    0.0020    0.0862
  S   O   60    0.0011    0.0009   -0.0004   -0.0006    0.0008   -0.0009   -0.0000   -0.0009
  Px  O   60    0.0015   -0.0001   -0.0007   -0.0008    0.0017    0.0001    0.0007   -0.0006
  Py  O   60    0.0056    0.0002   -0.0003   -0.0006    0.0002    0.0001   -0.0000    0.0004
  Pz  O   60    0.0003   -0.0022    0.0015    0.0008   -0.0014    0.0016   -0.0000    0.0018
  S   H   61   -0.0016   -0.0018    0.0006    0.0008   -0.0008    0.0020    0.0004    0.0019
  S   H   62    0.0001   -0.0011    0.0010    0.0009   -0.0019    0.0011   -0.0005    0.0018
  S   O   63   -0.0000    0.0001    0.0003    0.0001    0.0075    0.0009   -0.0044   -0.0461
  Px  O   63   -0.0000    0.0002    0.0004    0.0002    0.0088    0.0011   -0.0059   -0.0630
  Py  O   63    0.0001   -0.0002   -0.0005   -0.0003   -0.0080   -0.0007    0.0028    0.0248
  Pz  O   63    0.0001   -0.0001   -0.0004   -0.0002   -0.0079   -0.0008    0.0033    0.0322
  S   H   64    0.0001   -0.0003   -0.0009   -0.0006   -0.0168   -0.0018    0.0094    0.0950
  S   H   65    0.0000   -0.0001   -0.0002    0.0000   -0.0093   -0.0013    0.0076    0.0846
  S   O   66    0.0001   -0.0002   -0.0020    0.0006    0.0075    0.0022   -0.0038   -0.0274
  Px  O   66   -0.0002   -0.0002   -0.0001    0.0004   -0.0008    0.0000   -0.0005   -0.0041
  Py  O   66   -0.0020    0.0001    0.0051   -0.0017   -0.0146   -0.0045    0.0063    0.0423
  Pz  O   66    0.0007    0.0008   -0.0005    0.0003   -0.0006    0.0002    0.0012    0.0123
  S   H   67   -0.0003   -0.0001    0.0048   -0.0018   -0.0151   -0.0054    0.0078    0.0526
  S   H   68   -0.0001    0.0007    0.0016   -0.0004   -0.0089   -0.0023    0.0058    0.0454
  S   O   69    0.0002    0.0022   -0.0003   -0.0002    0.0020    0.0008   -0.0023   -0.0506
  Px  O   69   -0.0137    0.0041    0.0003   -0.0012    0.0036    0.0026   -0.0030   -0.0573
  Py  O   69    0.0056   -0.0021    0.0032   -0.0022    0.0003    0.0036    0.0001    0.0101
  Pz  O   69    0.0042   -0.0040   -0.0003    0.0010   -0.0030   -0.0018    0.0035    0.0797
  S   H   70    0.0002   -0.0039   -0.0010    0.0016   -0.0044   -0.0044    0.0052    0.1102
  S   H   71    0.0000   -0.0031    0.0014   -0.0005   -0.0023    0.0010    0.0031    0.0778
  S   H   72   -0.0044    0.0029    0.0011   -0.0076    0.2468    0.0161   -0.1468    0.1398
  S   H   73   -0.0163    0.0025    0.0137    0.0201    0.0375    0.0012   -0.0073    0.0136


              NET ATOMIC CHARGES AND DIPOLE CONTRIBUTIONS

  ATOM NO.   TYPE          CHARGE      No. of ELECS.   s-Pop       p-Pop       
    1          C           0.471019        3.5290     1.08248     2.44650
    2          O          -0.674400        6.6744     1.88604     4.78836
    3          N          -0.469778        5.4698     1.55007     3.91971
    4          H           0.356715        0.6433     0.64329
    5          C          -0.045083        4.0451     1.07486     2.97022
    6          H           0.151788        0.8482     0.84821
    7          C          -0.330560        4.3306     1.06671     3.26385
    8          H           0.169056        0.8309     0.83094
    9          H           0.174587        0.8254     0.82541
   10          C           0.019956        3.9800     1.07110     2.90894
   11          C          -0.204385        4.2044     1.08742     3.11696
   12          H           0.161690        0.8383     0.83831
   13          C          -0.144235        4.1442     1.08652     3.05772
   14          H           0.172618        0.8274     0.82738
   15          C          -0.170663        4.1707     1.09181     3.07885
   16          H           0.198151        0.8018     0.80185
   17          C          -0.200018        4.2000     1.08433     3.11569
   18          H           0.163682        0.8363     0.83632
   19          C          -0.174219        4.1742     1.09430     3.07992
   20          H           0.183380        0.8166     0.81662
   21          O          -0.802399        6.8024     1.83208     4.97032
   22          H           0.383410        0.6166     0.61659
   23          H           0.410658        0.5893     0.58934
   24          O          -0.748574        6.7486     1.81971     4.92886
   25          H           0.362318        0.6377     0.63768
   26          H           0.402016        0.5980     0.59798
   27          O          -0.770374        6.7704     1.81145     4.95893
   28          H           0.377132        0.6229     0.62287
   29          H           0.411240        0.5888     0.58876
   30          O          -0.730879        6.7309     1.81335     4.91752
   31          H           0.364361        0.6356     0.63564
   32          H           0.369121        0.6309     0.63088
   33          O          -0.741840        6.7418     1.81608     4.92576
   34          H           0.357163        0.6428     0.64284
   35          H           0.405099        0.5949     0.59490
   36          O          -0.849151        6.8492     1.82760     5.02155
   37          H           0.406216        0.5938     0.59378
   38          H           0.418025        0.5820     0.58197
   39          O          -0.794487        6.7945     1.82540     4.96909
   40          H           0.414126        0.5859     0.58587
   41          H           0.377101        0.6229     0.62290
   42          O          -0.803903        6.8039     1.82398     4.97993
   43          H           0.401450        0.5986     0.59855
   44          H           0.387133        0.6129     0.61287
   45          O          -0.791796        6.7918     1.80415     4.98764
   46          H           0.425193        0.5748     0.57481
   47          H           0.391489        0.6085     0.60851
   48          O          -0.767666        6.7677     1.83631     4.93135
   49          H           0.419400        0.5806     0.58060
   50          H           0.348251        0.6517     0.65175
   51          O          -0.780717        6.7807     1.83492     4.94580
   52          H           0.377300        0.6227     0.62270
   53          H           0.380532        0.6195     0.61947
   54          O          -0.786924        6.7869     1.82117     4.96576
   55          H           0.412977        0.5870     0.58702
   56          H           0.383535        0.6165     0.61647
   57          O          -0.786690        6.7867     1.83492     4.95177
   58          H           0.387963        0.6120     0.61204
   59          H           0.373335        0.6267     0.62666
   60          O          -0.771519        6.7715     1.83933     4.93219
   61          H           0.420875        0.5791     0.57913
   62          H           0.350433        0.6496     0.64957
   63          O          -0.835134        6.8351     1.83266     5.00247
   64          H           0.388163        0.6118     0.61184
   65          H           0.448441        0.5516     0.55156
   66          O          -0.820839        6.8208     1.82802     4.99282
   67          H           0.375991        0.6240     0.62401
   68          H           0.444525        0.5555     0.55548
   69          O          -0.786942        6.7869     1.83481     4.95213
   70          H           0.390530        0.6095     0.60947
   71          H           0.366262        0.6337     0.63374
   72          H           0.019276        0.9807     0.98072
   73          H           0.209494        0.7905     0.79051
 DIPOLE           X         Y         Z       TOTAL
 POINT-CHG.    15.041    -5.829   -18.206    24.324
 HYBRID         0.521    -0.997    -1.422     1.813
 SUM           15.562    -6.826   -19.628    25.962


          ATOMIC ORBITAL ELECTRON POPULATIONS

     Atom    s        px        py        pz   
    1  C   1.08248   0.83545   0.82268   0.78837
    2  O   1.88604   1.86438   1.46199   1.46199
    3  N   1.55007   1.14192   1.37172   1.40607
    4  H   0.64329
    5  C   1.07486   0.88897   0.97423   1.10703
    6  H   0.84821
    7  C   1.06671   1.18915   1.06364   1.01106
    8  H   0.83094
    9  H   0.82541
   10  C   1.07110   0.97798   0.96739   0.96357
   11  C   1.08742   1.03653   1.04210   1.03834
   12  H   0.83831
   13  C   1.08652   1.06709   0.99811   0.99251
   14  H   0.82738
   15  C   1.09181   0.98938   0.98777   1.10170
   16  H   0.80185
   17  C   1.08433   1.07052   1.03963   1.00554
   18  H   0.83632
   19  C   1.09430   1.03788   1.02021   1.02183
   20  H   0.81662
   21  O   1.83208   1.94790   1.45719   1.56523
   22  H   0.61659
   23  H   0.58934
   24  O   1.81971   1.56635   1.60784   1.75467
   25  H   0.63768
   26  H   0.59798
   27  O   1.81145   1.78564   1.45407   1.71922
   28  H   0.62287
   29  H   0.58876
   30  O   1.81335   1.87782   1.52150   1.51820
   31  H   0.63564
   32  H   0.63088
   33  O   1.81608   1.79224   1.51793   1.61560
   34  H   0.64284
   35  H   0.59490
   36  O   1.82760   1.58402   1.47564   1.96189
   37  H   0.59378
   38  H   0.58197
   39  O   1.82540   1.51675   1.49893   1.95341
   40  H   0.58587
   41  H   0.62290
   42  O   1.82398   1.52605   1.71815   1.73572
   43  H   0.59855
   44  H   0.61287
   45  O   1.80415   1.94210   1.58169   1.46386
   46  H   0.57481
   47  H   0.60851
   48  O   1.83631   1.52897   1.89530   1.50709
   49  H   0.58060
   50  H   0.65175
   51  O   1.83492   1.57568   1.61014   1.75998
   52  H   0.62270
   53  H   0.61947
   54  O   1.82117   1.70705   1.58920   1.66950
   55  H   0.58702
   56  H   0.61647
   57  O   1.83492   1.52855   1.71856   1.70466
   58  H   0.61204
   59  H   0.62666
   60  O   1.83933   1.50167   1.87342   1.55711
   61  H   0.57913
   62  H   0.64957
   63  O   1.83266   1.56844   1.59406   1.83997
   64  H   0.61184
   65  H   0.55156
   66  O   1.82802   1.89567   1.50411   1.59303
   67  H   0.62401
   68  H   0.55548
[...]
  
  S  H  62  -0.00000    -0.00000    -0.00001    -0.00000    -0.00000    -0.00000
  
  S  O  63  -0.00018    -0.00000     0.00051    -0.00000    -0.00000    -0.00001
 PX  O  63  -0.00023    -0.00000     0.00041    -0.00000    -0.00000    -0.00001
 PY  O  63   0.00026     0.00000    -0.00099     0.00000     0.00000     0.00002
 PZ  O  63   0.00014     0.00000    -0.00070     0.00000     0.00000     0.00002
  
  S  H  64   0.00093     0.00000    -0.00256     0.00000     0.00000     0.00002
  
  S  H  65   0.00017     0.00000     0.00009     0.00000     0.00000     0.00001
  
  S  O  66   0.00331    -0.00000     0.00095    -0.00001    -0.00001    -0.00027
 PX  O  66   0.88657     0.00000    -0.00007    -0.00001    -0.00001     0.00009
 PY  O  66   0.08303     0.00001    -0.00188     0.00002     0.00001     0.00051
 PZ  O  66   0.45470     0.00000     0.00009     0.00002     0.00001     0.00013
  
  S  H  67   0.00024     0.00001    -0.00327     0.00001     0.00001     0.00048
  
  S  H  68  -0.00004     0.00001    -0.00107     0.00004     0.00004     0.00053
  
  S  O  69   0.00006     0.00054     0.00009    -0.00016     0.00000     0.00639
 PX  O  69   0.00015    -0.00003     0.00022    -0.00042     0.00000     0.01023
 PY  O  69   0.00005    -0.00115     0.00006    -0.00028     0.00000     0.00413
 PZ  O  69  -0.00009    -0.00117    -0.00013     0.00022    -0.00000    -0.00877
  
  S  H  70  -0.00012    -0.00031    -0.00022     0.00069    -0.00000    -0.03136
  
  S  H  71  -0.00004    -0.00145    -0.00009     0.00001    -0.00000    -0.00391
  
  S  H  72   0.00000    -0.00000    -0.00068    -0.00000    -0.00000    -0.00001
  
  S  H  73   0.00008    -0.00000    -0.00025    -0.00000    -0.00000     0.00002




    ROOT NO.   91          92          93          94          95          96

           -12.14952   -11.95569   -11.91864   -11.91364   -11.54313   -11.47018
  
  
  S  C   1   0.00000    -0.00000     0.00000    -0.00003     0.00149    -0.00064
 PX  C   1   0.00001    -0.00000     0.00009     0.00010     0.00187    -0.00017
 PY  C   1  -0.00000     0.00000    -0.00002     0.00031    -0.00089     0.00124
 PZ  C   1  -0.00000     0.00000    -0.00000     0.00033    -0.00122     0.00163
  
  S  O   2  -0.00000     0.00000    -0.00000    -0.00000    -0.00017     0.00006
 PX  O   2  -0.00001     0.00000    -0.00003    -0.00006    -0.00037    -0.00003
 PY  O   2  -0.00000     0.00000    -0.00001    -0.00007    -0.00006    -0.00026
 PZ  O   2   0.00000    -0.00000     0.00001    -0.00011     0.00080    -0.00059
  
  S  N   3  -0.00002     0.00000    -0.00011    -0.00001    -0.00321     0.00064
 PX  N   3  -0.00000     0.00000    -0.00001    -0.00004    -0.00002    -0.00000
 PY  N   3  -0.00001     0.00000    -0.00008    -0.00003    -0.00121    -0.00019
 PZ  N   3   0.00002    -0.00000     0.00011    -0.00003     0.00116     0.00032
  
  S  H   4   0.00002    -0.00000     0.00021     0.00003     0.00600    -0.00006
  
  S  C   5  -0.00001     0.00000     0.00001     0.00075    -0.01337     0.00930
 PX  C   5  -0.00001     0.00000    -0.00006     0.00003    -0.00180     0.00025
 PY  C   5   0.00002    -0.00001     0.00004    -0.00106     0.02120    -0.01477
 PZ  C   5   0.00001    -0.00000    -0.00001    -0.00090     0.01148    -0.00922
  
  S  H   6   0.00000    -0.00000    -0.00001     0.00033     0.00430    -0.00274
  
  S  C   7   0.00002     0.00000     0.00003    -0.00499     0.00559    -0.00387
 PX  C   7  -0.00001    -0.00000    -0.00001     0.00328    -0.00077     0.00017
 PY  C   7   0.00001    -0.00000     0.00002     0.00290     0.01238    -0.00724
 PZ  C   7  -0.00004    -0.00000    -0.00005    -0.00341     0.00578    -0.00332
  
  S  H   8  -0.00000     0.00000    -0.00000     0.00127     0.01564    -0.01246
  
  S  H   9   0.00001    -0.00000     0.00001     0.00955     0.00399    -0.00258
  
  S  C  10  -0.00012     0.00004    -0.00009    -0.00016    -0.00273     0.00098
 PX  C  10   0.00009    -0.00002     0.00006    -0.00001    -0.19500     0.10288
 PY  C  10   0.00014    -0.00003     0.00001     0.00054     0.39240    -0.20474
 PZ  C  10   0.00006    -0.00003     0.00001    -0.00002     0.08028    -0.04138
  
  S  C  11   0.00012     0.00002     0.00009    -0.00071    -0.00034     0.00273
 PX  C  11   0.00017    -0.00001     0.00067     0.00122     0.00609    -0.00556
 PY  C  11  -0.00021     0.00000    -0.00110     0.00004    -0.00798     0.00799
 PZ  C  11  -0.00018    -0.00004    -0.00053    -0.00047     0.00131    -0.00240
  
  S  H  12   0.00008    -0.00003     0.00018     0.00151     0.00047    -0.00038
  
  S  C  13  -0.00114     0.00018    -0.00091     0.00016     0.00263    -0.00248
 PX  C  13   0.00125    -0.00032    -0.00023    -0.00016     0.10597    -0.22241
 PY  C  13   0.00060    -0.00009     0.00223     0.00047    -0.19279     0.41245
 PZ  C  13   0.00044    -0.00013     0.00052     0.00029    -0.04038     0.08202
  
  S  H  14   0.00180    -0.00013     0.00168     0.00011    -0.00358     0.00552
  
  S  C  15  -0.00039     0.00072    -0.00027    -0.00006    -0.00226    -0.00105
 PX  C  15   0.00021    -0.00020     0.00030     0.00006     0.00087    -0.32331
 PY  C  15  -0.00026     0.00007    -0.00085     0.00011    -0.00001     0.61478
 PZ  C  15   0.00044    -0.00096     0.00007    -0.00004    -0.00247     0.12180
  
  S  H  16   0.00061    -0.00133     0.00041     0.00004    -0.00000     0.00174
  
  S  C  17  -0.00006     0.00007    -0.00007    -0.00027     0.00546    -0.00056
 PX  C  17  -0.00004    -0.00002    -0.00029     0.00014    -0.29260     0.00852
 PY  C  17   0.00015     0.00001     0.00072     0.00024     0.64396    -0.01789
 PZ  C  17   0.00008    -0.00010     0.00018    -0.00017     0.12920    -0.00358
  
  S  H  18  -0.00000    -0.00002     0.00001    -0.00002    -0.00208    -0.00025
  
  S  C  19  -0.00001    -0.00005    -0.00002     0.00001     0.00120     0.00002
 PX  C  19   0.00011     0.00004     0.00034     0.00022    -0.19731    -0.19038
 PY  C  19  -0.00020     0.00006    -0.00088    -0.00039     0.42970     0.41510
 PZ  C  19  -0.00000    -0.00002    -0.00018    -0.00002     0.08124     0.07959
  
  S  H  20   0.00004    -0.00005     0.00004    -0.00004    -0.00315    -0.00221
  
  S  O  21  -0.00012     0.00002    -0.00103    -0.00000    -0.00754    -0.00792
 PX  O  21   0.00001     0.00000    -0.00058    -0.00000    -0.00475    -0.00552
 PY  O  21   0.00001     0.00000     0.00055     0.00000     0.00765     0.00952
 PZ  O  21   0.00028    -0.00005     0.00168     0.00000     0.01256     0.01332
  
  S  H  22   0.00018    -0.00003     0.00374     0.00001     0.03877     0.04490
  
  S  H  23   0.00018    -0.00003     0.00168     0.00001     0.00870     0.00597
  
  S  O  24  -0.00001     0.00001    -0.00004    -0.00003     0.00515     0.01045
 PX  O  24   0.00002    -0.00003     0.00004     0.00003    -0.00433    -0.00989
 PY  O  24  -0.00002    -0.00000    -0.00005    -0.00003     0.00812     0.01118
 PZ  O  24  -0.00001    -0.00000    -0.00004    -0.00003     0.00731     0.01236
  
  S  H  25   0.00002    -0.00001     0.00012     0.00009    -0.02617    -0.04919
  
  S  H  26   0.00001    -0.00003     0.00003     0.00004    -0.00259    -0.01406
  
  S  O  27  -0.00077     0.00049    -0.00028    -0.00000    -0.00042    -0.00237
 PX  O  27   0.00035     0.00042    -0.00031    -0.00000    -0.00073    -0.00207
 PY  O  27   0.00035    -0.00052    -0.00005     0.00000     0.00028     0.00021
 PZ  O  27   0.00017    -0.00070     0.00026     0.00000     0.00019     0.00271
  
  S  H  28   0.00112    -0.00192     0.00073     0.00000     0.00091     0.01055
  
  S  H  29   0.00094    -0.00023     0.00060     0.00000     0.00059     0.00444
  
  S  O  30   0.00001     0.00011    -0.00001    -0.00000    -0.00005     0.00011
 PX  O  30  -0.00002    -0.00001    -0.00000     0.00000    -0.00000    -0.00000
 PY  O  30  -0.00009     0.00001    -0.00001     0.00000     0.00003    -0.00007
 PZ  O  30  -0.00004     0.00001    -0.00002    -0.00000    -0.00004     0.00007
  
  S  H  31  -0.00013    -0.00015    -0.00001     0.00000     0.00011    -0.00024
  
  S  H  32   0.00004    -0.00016     0.00002     0.00000     0.00013    -0.00029
  
  S  O  33  -0.00008     0.00109     0.00000    -0.00000    -0.00050     0.00160
 PX  O  33   0.00004    -0.00044    -0.00000     0.00000    -0.00010    -0.00002
 PY  O  33   0.00000    -0.00052    -0.00001     0.00000     0.00090    -0.00294
 PZ  O  33   0.00002    -0.00066    -0.00003     0.00000    -0.00037    -0.00026
  
  S  H  34   0.00004    -0.00122    -0.00002     0.00000     0.00168    -0.00546
  
  S  H  35   0.00019    -0.00242    -0.00003     0.00000     0.00115    -0.00472
  
  S  O  36  -0.00000     0.00000    -0.00000    -0.00000     0.00020     0.00037
 PX  O  36   0.00001    -0.00001     0.00001     0.00000    -0.00044    -0.00076
 PY  O  36   0.00000    -0.00000     0.00000     0.00000    -0.00027    -0.00046
 PZ  O  36  -0.00000     0.00000    -0.00000    -0.00000     0.00013     0.00021
  
  S  H  37   0.00000    -0.00000     0.00001     0.00000    -0.00089    -0.00182
  
  S  H  38   0.00000    -0.00001     0.00000    -0.00000    -0.00014    -0.00029
  
  S  O  39  -0.00000     0.00000    -0.00000    -0.00002    -0.00001     0.00000
 PX  O  39  -0.00000     0.00000    -0.00000    -0.00003    -0.00003     0.00000
 PY  O  39   0.00000    -0.00000     0.00000     0.00001    -0.00000    -0.00000
 PZ  O  39   0.00000    -0.00000    -0.00000    -0.00000    -0.00001     0.00000
  
  S  H  40   0.00000    -0.00000     0.00000     0.00004     0.00001    -0.00001
  
  S  H  41   0.00000    -0.00000     0.00000     0.00004     0.00005    -0.00002
  
  S  O  42  -0.00000     0.00000    -0.00000    -0.00001    -0.00005     0.00003
 PX  O  42   0.00000    -0.00000     0.00000     0.00000     0.00003    -0.00002
 PY  O  42  -0.00000     0.00000    -0.00000    -0.00002    -0.00010     0.00006
 PZ  O  42   0.00000    -0.00000     0.00000     0.00002     0.00008    -0.00005
  
  S  H  43   0.00000    -0.00000     0.00000     0.00001     0.00005    -0.00004
  
  S  H  44   0.00000    -0.00000     0.00000     0.00003     0.00021    -0.00013
  
  S  O  45  -0.00001     0.00003    -0.00001    -0.00000     0.00120     0.00299
 PX  O  45   0.00001    -0.00004     0.00001     0.00000    -0.00045    -0.00064
 PY  O  45   0.00000    -0.00000     0.00002     0.00000    -0.00187    -0.00451
 PZ  O  45  -0.00000    -0.00000    -0.00001    -0.00000     0.00137     0.00245
  
  S  H  46   0.00001    -0.00002     0.00002     0.00000    -0.00165    -0.00410
  
  S  H  47   0.00001    -0.00002     0.00003     0.00001    -0.00431    -0.01394
  
  S  O  48  -0.00001     0.00000    -0.00005    -0.00000    -0.00035    -0.00026
 PX  O  48  -0.00001     0.00000    -0.00004    -0.00000    -0.00033    -0.00022
 PY  O  48   0.00000    -0.00000     0.00000     0.00000    -0.00005    -0.00003
 PZ  O  48   0.00003    -0.00000     0.00013     0.00000     0.00072     0.00060
  
  S  H  49   0.00002    -0.00000     0.00012     0.00000     0.00110     0.00084
  
  S  H  50   0.00001    -0.00000     0.00005     0.00000     0.00056     0.00041
  
  S  O  51  -0.00720     0.01102     0.00026    -0.00000     0.00002    -0.00006
 PX  O  51   0.36097     0.01333     0.00026    -0.00000     0.00003    -0.00002
 PY  O  51   0.55632     0.01164     0.00044     0.00000     0.00005    -0.00021
 PZ  O  51   0.74550    -0.01497    -0.00046    -0.00000     0.00001     0.00002
  
  S  H  52  -0.00061    -0.04800    -0.00143     0.00000    -0.00009     0.00035
  
  S  H  53  -0.00025    -0.00974     0.00004     0.00000    -0.00003    -0.00005
  
  S  O  54  -0.00005    -0.00006    -0.00002    -0.00000     0.00010     0.00029
 PX  O  54   0.00003    -0.00032    -0.00001    -0.00000     0.00026     0.00055
 PY  O  54  -0.00000    -0.00041     0.00000     0.00000    -0.00036    -0.00094
 PZ  O  54  -0.00002     0.00046    -0.00002     0.00000    -0.00003     0.00024
  
  S  H  55   0.00005     0.00125     0.00002     0.00000     0.00003     0.00045
  
  S  H  56   0.00005    -0.00047     0.00002     0.00000    -0.00052    -0.00227
  
  S  O  57   0.00006     0.00894     0.00003    -0.00000     0.00000    -0.00010
 PX  O  57  -0.00007     0.18313    -0.00003    -0.00000     0.00001    -0.00018
 PY  O  57  -0.00023     0.69945    -0.00004     0.00000     0.00000    -0.00001
 PZ  O  57  -0.00032    -0.68853     0.00002    -0.00000    -0.00000    -0.00007
  
  S  H  58   0.00026    -0.00043    -0.00003     0.00000    -0.00004     0.00053
  
  S  H  59  -0.00066    -0.00009    -0.00003     0.00000     0.00000     0.00008
  
  S  O  60  -0.00000     0.00000    -0.00000    -0.00137     0.00012    -0.00004
 PX  O  60   0.00000    -0.00000    -0.00000    -0.37260     0.00022    -0.00009
 PY  O  60  -0.00000     0.00000    -0.00000     0.87433     0.00003     0.00002
 PZ  O  60   0.00000    -0.00000     0.00000    -0.31075    -0.00026     0.00007
  
  S  H  61   0.00000    -0.00000     0.00000     0.00002    -0.00005     0.00009
  
  S  H  62   0.00000    -0.00000     0.00000    -0.00004    -0.00064     0.00033
  
  S  O  63  -0.00000     0.00000    -0.00000     0.00000    -0.00004    -0.00000
 PX  O  63  -0.00000     0.00000    -0.00000     0.00000    -0.00004     0.00000
 PY  O  63   0.00000    -0.00000     0.00000    -0.00000     0.00007    -0.00000
 PZ  O  63   0.00000    -0.00000     0.00000    -0.00000     0.00006     0.00001
  
  S  H  64   0.00000    -0.00000     0.00000    -0.00001     0.00016    -0.00002
  
  S  H  65   0.00000    -0.00000     0.00000    -0.00000     0.00004     0.00001
  
  S  O  66  -0.00000     0.00000    -0.00003     0.00000    -0.00153    -0.00040
 PX  O  66   0.00000    -0.00000     0.00002     0.00000    -0.00001     0.00000
 PY  O  66   0.00001    -0.00000     0.00007    -0.00000     0.00290     0.00089
 PZ  O  66   0.00000    -0.00000     0.00000    -0.00000    -0.00029     0.00004
  
  S  H  67   0.00001    -0.00000     0.00005    -0.00000     0.00769     0.00123
  
  S  H  68   0.00000    -0.00000     0.00002    -0.00000     0.00182     0.00067
  
  S  O  69  -0.01277     0.00059     0.00131    -0.00000     0.00032    -0.00168
 PX  O  69   0.00097     0.00020     0.66093    -0.00000     0.00011    -0.00171
 PY  O  69   0.02028    -0.00085    -0.53583     0.00000    -0.00062     0.00045
 PZ  O  69   0.01948    -0.00120     0.52538     0.00000    -0.00046     0.00230
  
  S  H  70   0.00770    -0.00074    -0.00008     0.00000    -0.00081     0.00650
  
  S  H  71   0.05788    -0.00140     0.00001     0.00000    -0.00130     0.00419
  
  S  H  72   0.00000     0.00000     0.00004    -0.00001    -0.00016     0.00013
  
  S  H  73   0.00000    -0.00000     0.00000    -0.00052     0.00239    -0.00057




    ROOT NO.   97

           -11.44161
  
  
  S  C   1   0.00130
 PX  C   1   0.00118
 PY  C   1  -0.00218
 PZ  C   1  -0.00264
  
  S  O   2  -0.00015
 PX  O   2  -0.00018
 PY  O   2   0.00023
 PZ  O   2   0.00099
  
  S  N   3  -0.00220
 PX  N   3  -0.00003
 PY  N   3  -0.00066
 PZ  N   3   0.00038
  
  S  H   4   0.00328
  
  S  C   5  -0.01399
 PX  C   5  -0.00110
 PY  C   5   0.02191
 PZ  C   5   0.01302
  
  S  H   6   0.00380
  
  S  C   7   0.00647
 PX  C   7  -0.00336
 PY  C   7   0.01575
 PZ  C   7   0.00593
  
  S  H   8   0.01821
  
  S  H   9   0.00284
  
  S  C  10  -0.00223
 PX  C  10  -0.20948
 PY  C  10   0.41503
 PZ  C  10   0.08389
  
  S  C  11  -0.00349
 PX  C  11  -0.33797
 PY  C  11   0.61690
 PZ  C  11   0.12515
  
  S  H  12   0.00309
  
  S  C  13  -0.00067
 PX  C  13  -0.21527
 PY  C  13   0.39359
 PZ  C  13   0.08634
  
  S  H  14   0.00582
  
  S  C  15   0.00256
 PX  C  15   0.00092
 PY  C  15  -0.00535
 PZ  C  15   0.00170
  
  S  H  16   0.00013
  
  S  C  17   0.00003
 PX  C  17  -0.00650
 PY  C  17   0.01234
 PZ  C  17   0.00262
  
  S  H  18   0.00101
  
  S  C  19  -0.00090
 PX  C  19   0.09710
 PY  C  19  -0.21134
 PZ  C  19  -0.04016
  
  S  H  20   0.00215
  
  S  O  21  -0.00134
 PX  O  21  -0.00074
 PY  O  21   0.00068
 PZ  O  21   0.00174
  
  S  H  22   0.00549
  
  S  H  23   0.00257
  
  S  O  24   0.00007
 PX  O  24  -0.00061
 PY  O  24  -0.00097
 PZ  O  24  -0.00033
  
  S  H  25   0.00076
  
  S  H  26  -0.00110
  
  S  O  27   0.00016
 PX  O  27   0.00031
 PY  O  27   0.00002
 PZ  O  27  -0.00038
  
  S  H  28  -0.00112
  
  S  H  29  -0.00039
  
  S  O  30   0.00008
 PX  O  30  -0.00001
 PY  O  30  -0.00005
 PZ  O  30   0.00005
  
  S  H  31  -0.00016
  
  S  H  32  -0.00024
  
  S  O  33   0.00074
 PX  O  33   0.00037
 PY  O  33  -0.00123
 PZ  O  33   0.00065
  
  S  H  34  -0.00238
  
  S  H  35  -0.00122
  
  S  O  36  -0.00014
 PX  O  36   0.00030
 PY  O  36   0.00017
 PZ  O  36  -0.00009
  
  S  H  37   0.00071
  
  S  H  38   0.00013
  
  S  O  39  -0.00004
 PX  O  39  -0.00007
 PY  O  39   0.00000
 PZ  O  39  -0.00001
  
  S  H  40   0.00007
  
  S  H  41   0.00021
  
  S  O  42  -0.00006
 PX  O  42   0.00003
 PY  O  42  -0.00010
 PZ  O  42   0.00008
  
  S  H  43   0.00006
  
  S  H  44   0.00022
  
  S  O  45  -0.00075
 PX  O  45   0.00016
 PY  O  45   0.00104
 PZ  O  45  -0.00063
  
  S  H  46   0.00141
  
  S  H  47   0.00314
  
  S  O  48  -0.00007
 PX  O  48  -0.00005
 PY  O  48   0.00001
 PZ  O  48   0.00015
  
  S  H  49   0.00021
  
  S  H  50   0.00006
  
  S  O  51  -0.00004
 PX  O  51  -0.00005
 PY  O  51  -0.00008
 PZ  O  51  -0.00004
  
  S  H  52   0.00009
  
  S  H  53   0.00010
  
  S  O  54  -0.00009
 PX  O  54  -0.00015
 PY  O  54   0.00023
 PZ  O  54  -0.00003
  
  S  H  55  -0.00004
  
  S  H  56   0.00056
  
  S  O  57   0.00001
 PX  O  57   0.00000
 PY  O  57  -0.00001
 PZ  O  57  -0.00001
  
  S  H  58  -0.00004
  
  S  H  59  -0.00002
  
  S  O  60   0.00055
 PX  O  60   0.00038
 PY  O  60  -0.00026
 PZ  O  60  -0.00081
  
  S  H  61  -0.00208
  
  S  H  62  -0.00192
  
  S  O  63  -0.00002
 PX  O  63  -0.00002
 PY  O  63   0.00003
 PZ  O  63   0.00002
  
  S  H  64   0.00007
  
  S  H  65   0.00001
  
  S  O  66   0.00017
 PX  O  66   0.00008
 PY  O  66  -0.00027
 PZ  O  66  -0.00007
  
  S  H  67  -0.00083
  
  S  H  68  -0.00042
  
  S  O  69  -0.00067
 PX  O  69  -0.00062
 PY  O  69   0.00076
 PZ  O  69   0.00102
  
  S  H  70   0.00140
  
  S  H  71   0.00214
  
  S  H  72   0.00009
  
  S  H  73   0.00072

          BONDING CONTRIBUTION OF EACH M.O.

  1.8618  1.6771  1.9471  1.7647  0.0560  1.6986  1.7084  1.7188  1.7265  1.7331
  1.6554  1.7150  1.6812  1.7344  1.6415  1.6725  1.6667  1.7534  0.0002  1.5960
  0.0001  1.9927  1.6558  1.6761  0.0096  1.7033  1.9981  1.9555  1.9973  0.0126
  1.9936  0.0071  1.7530  1.9996  1.6307  0.0006  1.6636  1.6701  1.6491  1.9985
  1.6507  1.6173  1.7133  1.7178  0.0364  1.6978  0.0013  1.6032  1.6583  0.0004
  0.0030  0.0001  0.0745  1.6450  1.6537  0.0598  0.0484  0.0075  0.0012  1.6279
  1.6484  0.0009  1.6420  1.9936  1.9204  1.9995  1.9499  1.9357  1.9511  1.9594
  1.9459  1.9289  1.9627  1.9426  1.0353  0.0041  0.0001  0.0733  1.1492  0.0090
  0.0028  0.0982  0.2616  0.0003  0.0021  0.0472  0.0062  0.0755  0.0001  0.0122
  0.0278  0.0196  0.0002  0.0010  1.9784  2.0234  2.0034 -2.0115 -2.0392 -2.0945
 -1.9395 -1.9957 -1.9108 -1.7696 -1.7997 -1.9661 -1.8204 -1.7470 -1.7679 -1.8360
 -1.8656 -1.7441 -1.7422 -1.9154 -1.7110 -1.8459 -1.6667 -1.9574 -1.7105 -1.7323
 -1.7205 -1.7583 -1.9229 -1.7624 -1.9657 -1.9875 -1.9348 -1.6773 -1.9528 -1.8737
 -1.7822 -1.9134 -1.9373 -1.7588 -1.6548 -1.6826 -1.9690 -1.8291 -1.7899 -1.7529
 -1.8219 -1.9139 -1.7536 -1.9263 -1.9319 -1.6571 -1.7047 -1.6529 -1.7024 -1.6889
 -1.6569 -1.6906 -1.7110 -1.6798 -1.7079 -1.6775 -1.7127

           DATA FOR GRAPH WRITTEN TO DISK

 **********************
 *                    *
 * JOB ENDED NORMALLY *
 *                    *
 **********************



 TOTAL JOB TIME:             0.88 SECONDS

 == MOPAC DONE ==
