 *******************************************************************************
 ** Site#: 34139        For non-commercial use only    Version 20.015L 64BITS **
 *******************************************************************************
 ** Cite this program as: MOPAC2016, Version: 20.015L, James J. P. Stewart,   **
 ** Stewart Computational Chemistry, web: HTTP://OpenMOPAC.net. Days left: 254**
 *******************************************************************************
 **                                                                           **
 **                                MOPAC2016                                  **
 **                                                                           **
 *******************************************************************************

                              PM7 CALCULATION RESULTS

 *******************************************************************************
 *  CALCULATION DONE:                                Wed May  6 10:12:42 2020  *
 *  PM7        - The PM7 Hamiltonian to be used
 *  QMMM       - Generate energies and gradients for use in MM codes
 *  DIPOLE     - PRINT DIPOLE INSTEAD OF ENERGY IN TRAJECTORIES
 *  GEO-OK     - OVERRIDE INTERATOMIC DISTANCE AND OTHER SAFETY CHECKS
 *
 *
 *
 *                 CHARGE ON SYSTEM = 0
 *
 *
 *
 *  LET        - OVERRIDE SOME SAFETY CHECKS
 *  XYZ        - CARTESIAN COORDINATE SYSTEM TO BE USED
 *  FORCE      - FORCE CALCULATION SPECIFIED
 *  1SCF       - DO 1 SCF AND THEN STOP 
 *  T=         - A TIME OF      2.0 MINUTES REQUESTED
 *  DUMP=N     - RESTART FILE WRITTEN EVERY  7200.000 SECONDS
 *  CUTOFF=    - CUTOFF FOR NDDO AND DIPOLE INTERACTIONS =  9.00A
 *  AUX        - OUTPUT AUXILIARY INFORMATION
 *  GRADIENTS  - ALL GRADIENTS TO BE PRINTED
 *  VECTORS    - FINAL EIGENVECTORS TO BE PRINTED
 *  EIGEN      - CONVERT LMO's INTO EIGENVECTORS
 *  LARGE      - EXPANDED OUTPUT TO BE PRINTED
 *  AIGOUT     - IN ARC FILE, INCLUDE AB-INITIO GEOMETRY
 *  GRAPH      - GENERATE FILE FOR GRAPHICS
 *  LOCALIZE   - LOCALIZED ORBITALS TO BE PRINTED
 *  PI         - BONDS MATRIX, SPLIT INTO SIGMA-PI-DELL COMPONENTS, TO BE PRINTED
 *******************************************************************************
PM7 XYZ T=2M 1SCF LOCALIZE AIGOUT GRAPH GRAPHF LARGE DIPOLE PI FORCE CUTOFF=9.0 AUX LET GRAD QMMM GEO-OK EIGEN VECTORS CHARGE=0
 Test System

   ATOM   CHEMICAL          X               Y               Z
  NUMBER   SYMBOL      (ANGSTROMS)     (ANGSTROMS)     (ANGSTROMS)
 
     1       C         -6.48627400  *  -4.66532100  *   0.90543500  *
     2       O         -7.32195000  *  -5.60533000  *   0.86009600  *
     3       N         -5.16900400  *  -4.91050200  *   0.98019700  *
     4       H         -4.47792600  *  -3.96286900  *   0.94066400  *
     5       C         -4.30634200  *  -6.09310400  *   1.04834900  *
     6       H         -4.17300700  *  -6.36736700  *   2.09218600  *
     7       C         -4.77250300  *  -7.34213700  *   0.30707400  *
     8       H         -5.89636900  *  -7.26885300  *   0.38958800  *
     9       H         -4.47292300  *  -7.20944700  *  -0.79342700  *
    10       C         -4.37067100  *  -8.64333100  *   0.85963400  *
    11       C         -3.30943300  *  -9.38946900  *   0.26268800  *
    12       H         -2.71829700  *  -8.77127100  *  -0.38484800  *
    13       C         -2.83137100  * -10.53796000  *   0.77154200  *
    14       H         -1.94126400  * -11.03335300  *   0.31145600  *
    15       C         -3.47413100  * -11.11505400  *   1.87624500  *
    16       H         -3.14519700  * -12.02649200  *   2.36789300  *
    17       C         -4.92366800  *  -9.21198400  *   1.97719500  *
    18       H         -5.73662300  *  -8.61942300  *   2.50204000  *
    19       C         -4.47159400  * -10.38934200  *   2.54223500  *
    20       H         -4.88916200  * -10.76665800  *   3.50497500  *
    21       O          2.35705900  *  -8.81012000  *  -5.25601600  *
    22       H          2.92170500  *  -8.11589100  *  -4.71692900  *
    23       H          1.69774500  *  -8.21924800  *  -5.69530800  *
    24       O         -8.59791200  *  -6.09703600  *  -1.47467300  *
    25       H         -7.95789900  *  -5.66241200  *  -1.95011700  *
    26       H         -8.26862000  *  -5.82019000  *  -0.57770800  *
    27       O         -3.39281400  *  -8.17728400  *  -3.38946500  *
    28       H         -3.81352200  *  -7.34381100  *  -3.08624300  *
    29       H         -2.48993300  *  -7.87621500  *  -3.43047300  *
    30       O         -6.49149500  *  -4.90459900  *  -2.65474100  *
    31       H         -6.23842800  *  -4.25386200  *  -1.95188600  *
    32       H         -5.58227200  *  -5.33672900  *  -2.79027200  *
    33       O         -9.86806600  *  -6.02338700  *   1.46567500  *
    34       H         -9.93125400  *  -6.21524600  *   2.41597400  *
    35       H         -8.93548800  *  -5.97532800  *   1.20603200  *
    36       O         -2.03743500  *  -5.73697600  *   4.20888900  *
    37       H         -2.78500500  *  -5.96338300  *   4.82730900  *
    38       H         -2.18742900  *  -4.76228300  *   4.12708400  *
    39       O         -4.70543700  *  -2.94776700  *  -1.65106500  *
    40       H         -3.75168000  *  -3.05397000  *  -2.03397700  *
    41       H         -4.48898500  *  -2.65489000  *  -0.71978700  *
    42       O          0.03837700  *  -5.95267400  *   5.63398000  *
    43       H         -0.79939700  *  -5.87595500  *   5.07065000  *
    44       H          0.27751500  *  -5.00354900  *   5.58361600  *
    45       O         -9.43261200  *  -6.76218300  *   4.17078800  *
    46       H         -8.51821600  *  -6.83637400  *   3.74912600  *
    47       H         -9.27450800  *  -6.01750500  *   4.70223300  *
    48       O         -4.04545400  *  -5.64725400  *  -3.00568400  *
    49       H         -3.79117100  *  -5.05660000  *  -3.69956300  *
    50       H         -3.55665500  *  -5.33943700  *  -2.23182700  *
    51       O         -7.09963800  *  -7.24210900  *   2.83141700  *
    52       H         -6.53121300  *  -6.63278700  *   3.37781100  *
    53       H         -7.11368100  *  -6.67119700  *   1.99732300  *
    54       O         -1.52276400  *  -0.49757600  *   3.31565600  *
    55       H         -2.33541900  *  -0.93069100  *   3.06944900  *
    56       H         -0.89154200  *  -0.71297300  *   2.57894700  *
    57       H         -6.81083300  *  -3.62477300  *   0.90096700  *
    58       H         -3.33214900  *  -5.76598600  *   0.68497400  *
 


          CARTESIAN COORDINATES 

    NO.       ATOM           X           Y           Z

     1         C         -6.4863     -4.6653      0.9054
     2         O         -7.3220     -5.6053      0.8601
     3         N         -5.1690     -4.9105      0.9802
     4         H         -4.4779     -3.9629      0.9407
     5         C         -4.3063     -6.0931      1.0483
     6         H         -4.1730     -6.3674      2.0922
     7         C         -4.7725     -7.3421      0.3071
     8         H         -5.8964     -7.2689      0.3896
     9         H         -4.4729     -7.2094     -0.7934
    10         C         -4.3707     -8.6433      0.8596
    11         C         -3.3094     -9.3895      0.2627
    12         H         -2.7183     -8.7713     -0.3848
    13         C         -2.8314    -10.5380      0.7715
    14         H         -1.9413    -11.0334      0.3115
    15         C         -3.4741    -11.1151      1.8762
    16         H         -3.1452    -12.0265      2.3679
    17         C         -4.9237     -9.2120      1.9772
    18         H         -5.7366     -8.6194      2.5020
    19         C         -4.4716    -10.3893      2.5422
    20         H         -4.8892    -10.7667      3.5050
    21         O          2.3571     -8.8101     -5.2560
    22         H          2.9217     -8.1159     -4.7169
    23         H          1.6977     -8.2192     -5.6953
    24         O         -8.5979     -6.0970     -1.4747
    25         H         -7.9579     -5.6624     -1.9501
    26         H         -8.2686     -5.8202     -0.5777
    27         O         -3.3928     -8.1773     -3.3895
    28         H         -3.8135     -7.3438     -3.0862
    29         H         -2.4899     -7.8762     -3.4305
    30         O         -6.4915     -4.9046     -2.6547
    31         H         -6.2384     -4.2539     -1.9519
    32         H         -5.5823     -5.3367     -2.7903
    33         O         -9.8681     -6.0234      1.4657
    34         H         -9.9313     -6.2152      2.4160
    35         H         -8.9355     -5.9753      1.2060
    36         O         -2.0374     -5.7370      4.2089
    37         H         -2.7850     -5.9634      4.8273
    38         H         -2.1874     -4.7623      4.1271
    39         O         -4.7054     -2.9478     -1.6511
    40         H         -3.7517     -3.0540     -2.0340
    41         H         -4.4890     -2.6549     -0.7198
    42         O          0.0384     -5.9527      5.6340
    43         H         -0.7994     -5.8760      5.0706
    44         H          0.2775     -5.0035      5.5836
    45         O         -9.4326     -6.7622      4.1708
    46         H         -8.5182     -6.8364      3.7491
    47         H         -9.2745     -6.0175      4.7022
    48         O         -4.0455     -5.6473     -3.0057
    49         H         -3.7912     -5.0566     -3.6996
    50         H         -3.5567     -5.3394     -2.2318
    51         O         -7.0996     -7.2421      2.8314
    52         H         -6.5312     -6.6328      3.3778
    53         H         -7.1137     -6.6712      1.9973
    54         O         -1.5228     -0.4976      3.3157
    55         H         -2.3354     -0.9307      3.0694
    56         H         -0.8915     -0.7130      2.5789
    57         H         -6.8108     -3.6248      0.9010
    58         H         -3.3321     -5.7660      0.6850

 General Reference for PM7:
 "Optimization of Parameters for Semiempirical Methods VI: More Modifications to the 
 NDDO Approximations and Re-optimization of Parameters", J. J. P. Stewart, J. Mol. Mod., 1:32, 19 (2013)
 http://www.springerlink.com/openurl.asp?genre=article&id=doi:10.1007/s00894-012-1667-x

           Empirical Formula: C9 H35 N O13  =    58 atoms



      MOLECULAR POINT GROUP   :   C1  


      RHF CALCULATION, NO. OF DOUBLY OCCUPIED LEVELS = 77


 -------------------------------------------------------------------------------
 PM7 XYZ T=2M 1SCF LOCALIZE AIGOUT GRAPH GRAPHF LARGE DIPOLE PI FORCE CUTOFF=9.0 AUX LET GRAD QMMM GEO-OK EIGEN VECTORS CHARGE=0
 Test System



     1SCF WAS SPECIFIED, SO BFGS WAS NOT USED                 
     SCF FIELD WAS ACHIEVED                                   


                              PM7 CALCULATION
                                                       MOPAC2016 (Version: 20.015L)
                                                       Wed May  6 10:12:43 2020
                                                       No. of days remaining = 254




          FINAL HEAT OF FORMATION =      -1015.93703 KCAL/MOL =   -4250.68053 KJ/MOL


          TOTAL ENERGY            =      -5618.18450 EV
          ELECTRONIC ENERGY       =     -38742.84558 EV  POINT GROUP:     C1  
          CORE-CORE REPULSION     =      33124.66108 EV
          COSMO AREA              =        492.88 SQUARE ANGSTROMS
          COSMO VOLUME            =        510.20 CUBIC ANGSTROMS

          GRADIENT NORM           =        283.74524 = 37.25757 PER ATOM
          IONIZATION POTENTIAL    =         10.602054 EV
          HOMO LUMO ENERGIES (EV) =        -10.602 -1.185
          NO. OF FILLED LEVELS    =         77
          MOLECULAR WEIGHT        =        365.3744

          MOLECULAR DIMENSIONS (Angstroms)

            Atom       Atom       Distance
            H    47    O    21    15.56466
            O    54    H    16    11.58912
            O    42    H    25    10.84453


          SCF CALCULATIONS        =          1
 
          WALL-CLOCK TIME         =          0.613 SECONDS
          COMPUTATION TIME        =          0.788 SECONDS

          LARGEST ATOMIC GRADIENTS

          Atom     Label                     Cartesian Gradients           Cartesian Coordinates       |Gradient|
                                           X          Y          Z        X          Y          Z

             3       N                 -46.229    -78.982      4.559   -5.16900   -4.91050    0.98020     91.630
            11       C                  10.044    -82.482     -4.830   -3.30943   -9.38947    0.26269     83.232
            39       O                 -63.650      7.996    -24.882   -4.70544   -2.94777   -1.65107     68.806
             4       H                  40.864     50.402     -6.550   -4.47793   -3.96287    0.94066     65.216
            13       C                 -15.255     61.114     -8.741   -2.83137  -10.53796    0.77154     63.593
            21       O                 -10.385    -59.682    -18.180    2.35706   -8.81012   -5.25602     63.248
            17       C                  34.392    -32.646    -32.059   -4.92367   -9.21198    1.97720     57.239
            51       O                  -9.434    -44.272    -23.287   -7.09964   -7.24211    2.83142     50.905
            45       O                 -41.369     -1.553     26.354   -9.43261   -6.76218    4.17079     49.074
            36       O                  40.206    -27.489     -2.019   -2.03743   -5.73698    4.20889     48.747



       FINAL  POINT  AND  DERIVATIVES

   PARAMETER     ATOM    TYPE            VALUE        GRADIENT
      1          1  C    CARTESIAN X    -6.486274      3.983167  KCAL/ANGSTROM
      2          1  C    CARTESIAN Y    -4.665321     44.399734  KCAL/ANGSTROM
      3          1  C    CARTESIAN Z     0.905435      6.818201  KCAL/ANGSTROM
      4          2  O    CARTESIAN X    -7.321950    -29.976808  KCAL/ANGSTROM
      5          2  O    CARTESIAN Y    -5.605330    -29.476640  KCAL/ANGSTROM
      6          2  O    CARTESIAN Z     0.860096      1.901302  KCAL/ANGSTROM
      7          3  N    CARTESIAN X    -5.169004    -46.229488  KCAL/ANGSTROM
      8          3  N    CARTESIAN Y    -4.910502    -78.982070  KCAL/ANGSTROM
      9          3  N    CARTESIAN Z     0.980197      4.558996  KCAL/ANGSTROM
     10          4  H    CARTESIAN X    -4.477926     40.863895  KCAL/ANGSTROM
     11          4  H    CARTESIAN Y    -3.962869     50.402261  KCAL/ANGSTROM
     12          4  H    CARTESIAN Z     0.940664     -6.550459  KCAL/ANGSTROM
     13          5  C    CARTESIAN X    -4.306342     11.794852  KCAL/ANGSTROM
     14          5  C    CARTESIAN Y    -6.093104      1.746273  KCAL/ANGSTROM
     15          5  C    CARTESIAN Z     1.048349     -8.440573  KCAL/ANGSTROM
     16          6  H    CARTESIAN X    -4.173007     -2.435360  KCAL/ANGSTROM
     17          6  H    CARTESIAN Y    -6.367367      5.391549  KCAL/ANGSTROM
     18          6  H    CARTESIAN Z     2.092186    -21.752051  KCAL/ANGSTROM
     19          7  C    CARTESIAN X    -4.772503     19.208564  KCAL/ANGSTROM
     20          7  C    CARTESIAN Y    -7.342137    -28.608528  KCAL/ANGSTROM
     21          7  C    CARTESIAN Z     0.307074     26.230048  KCAL/ANGSTROM
     22          8  H    CARTESIAN X    -5.896369      5.080944  KCAL/ANGSTROM
     23          8  H    CARTESIAN Y    -7.268853     12.295092  KCAL/ANGSTROM
     24          8  H    CARTESIAN Z     0.389588     14.963307  KCAL/ANGSTROM
     25          9  H    CARTESIAN X    -4.472923     12.224241  KCAL/ANGSTROM
     26          9  H    CARTESIAN Y    -7.209447     14.135770  KCAL/ANGSTROM
     27          9  H    CARTESIAN Z    -0.793427    -16.455230  KCAL/ANGSTROM
     28         10  C    CARTESIAN X    -4.370671    -30.078841  KCAL/ANGSTROM
     29         10  C    CARTESIAN Y    -8.643331     26.424219  KCAL/ANGSTROM
     30         10  C    CARTESIAN Z     0.859634     17.220834  KCAL/ANGSTROM
     31         11  C    CARTESIAN X    -3.309433     10.043887  KCAL/ANGSTROM
     32         11  C    CARTESIAN Y    -9.389469    -82.482459  KCAL/ANGSTROM
     33         11  C    CARTESIAN Z     0.262688     -4.829832  KCAL/ANGSTROM
     34         12  H    CARTESIAN X    -2.718297     -7.179226  KCAL/ANGSTROM
     35         12  H    CARTESIAN Y    -8.771271      6.411421  KCAL/ANGSTROM
     36         12  H    CARTESIAN Z    -0.384848     27.717584  KCAL/ANGSTROM
     37         13  C    CARTESIAN X    -2.831371    -15.255291  KCAL/ANGSTROM
     38         13  C    CARTESIAN Y   -10.537960     61.113885  KCAL/ANGSTROM
     39         13  C    CARTESIAN Z     0.771542     -8.741135  KCAL/ANGSTROM
     40         14  H    CARTESIAN X    -1.941264     12.825939  KCAL/ANGSTROM
     41         14  H    CARTESIAN Y   -11.033353     -3.255939  KCAL/ANGSTROM
     42         14  H    CARTESIAN Z     0.311456     -7.980369  KCAL/ANGSTROM
     43         15  C    CARTESIAN X    -3.474131      1.640276  KCAL/ANGSTROM
     44         15  C    CARTESIAN Y   -11.115054    -11.053660  KCAL/ANGSTROM
     45         15  C    CARTESIAN Z     1.876245    -27.033196  KCAL/ANGSTROM
     46         16  H    CARTESIAN X    -3.145197     -3.601103  KCAL/ANGSTROM
     47         16  H    CARTESIAN Y   -12.026492      3.242463  KCAL/ANGSTROM
     48         16  H    CARTESIAN Z     2.367893      9.782049  KCAL/ANGSTROM
     49         17  C    CARTESIAN X    -4.923668     34.391620  KCAL/ANGSTROM
     50         17  C    CARTESIAN Y    -9.211984    -32.645721  KCAL/ANGSTROM
     51         17  C    CARTESIAN Z     1.977195    -32.059356  KCAL/ANGSTROM
     52         18  H    CARTESIAN X    -5.736623     -8.703072  KCAL/ANGSTROM
     53         18  H    CARTESIAN Y    -8.619423     17.752486  KCAL/ANGSTROM
     54         18  H    CARTESIAN Z     2.502040      5.978767  KCAL/ANGSTROM
     55         19  C    CARTESIAN X    -4.471594     -5.944058  KCAL/ANGSTROM
     56         19  C    CARTESIAN Y   -10.389342     26.015394  KCAL/ANGSTROM
     57         19  C    CARTESIAN Z     2.542235      1.315814  KCAL/ANGSTROM
     58         20  H    CARTESIAN X    -4.889162     -4.197865  KCAL/ANGSTROM
     59         20  H    CARTESIAN Y   -10.766658     -5.297437  KCAL/ANGSTROM
     60         20  H    CARTESIAN Z     3.504975     16.490268  KCAL/ANGSTROM
     61         21  O    CARTESIAN X     2.357059    -10.384902  KCAL/ANGSTROM
     62         21  O    CARTESIAN Y    -8.810120    -59.681624  KCAL/ANGSTROM
     63         21  O    CARTESIAN Z    -5.256016    -18.180079  KCAL/ANGSTROM
     64         22  H    CARTESIAN X     2.921705     19.013667  KCAL/ANGSTROM
     65         22  H    CARTESIAN Y    -8.115891     39.188829  KCAL/ANGSTROM
     66         22  H    CARTESIAN Z    -4.716929     21.346339  KCAL/ANGSTROM
     67         23  H    CARTESIAN X     1.697745     -8.826843  KCAL/ANGSTROM
     68         23  H    CARTESIAN Y    -8.219248     20.450964  KCAL/ANGSTROM
     69         23  H    CARTESIAN Z    -5.695308     -3.006389  KCAL/ANGSTROM
     70         24  O    CARTESIAN X    -8.597912     -1.143741  KCAL/ANGSTROM
     71         24  O    CARTESIAN Y    -6.097036     -7.892842  KCAL/ANGSTROM
     72         24  O    CARTESIAN Z    -1.474673    -40.121038  KCAL/ANGSTROM
     73         25  H    CARTESIAN X    -7.957899    -22.235723  KCAL/ANGSTROM
     74         25  H    CARTESIAN Y    -5.662412     -8.067634  KCAL/ANGSTROM
     75         25  H    CARTESIAN Z    -1.950117     37.022880  KCAL/ANGSTROM
     76         26  H    CARTESIAN X    -8.268620     19.438354  KCAL/ANGSTROM
     77         26  H    CARTESIAN Y    -5.820190     18.574234  KCAL/ANGSTROM
     78         26  H    CARTESIAN Z    -0.577708      5.815485  KCAL/ANGSTROM
     79         27  O    CARTESIAN X    -3.392814     -2.510449  KCAL/ANGSTROM
     80         27  O    CARTESIAN Y    -8.177284    -18.444454  KCAL/ANGSTROM
     81         27  O    CARTESIAN Z    -3.389465    -11.549192  KCAL/ANGSTROM
     82         28  H    CARTESIAN X    -3.813522      7.758638  KCAL/ANGSTROM
     83         28  H    CARTESIAN Y    -7.343811     15.710762  KCAL/ANGSTROM
     84         28  H    CARTESIAN Z    -3.086243     10.921343  KCAL/ANGSTROM
     85         29  H    CARTESIAN X    -2.489933     -7.399023  KCAL/ANGSTROM
     86         29  H    CARTESIAN Y    -7.876215     11.884451  KCAL/ANGSTROM
     87         29  H    CARTESIAN Z    -3.430473      5.763075  KCAL/ANGSTROM
     88         30  O    CARTESIAN X    -6.491495    -27.502549  KCAL/ANGSTROM
     89         30  O    CARTESIAN Y    -4.904599    -10.684525  KCAL/ANGSTROM
     90         30  O    CARTESIAN Z    -2.654741    -24.789216  KCAL/ANGSTROM
     91         31  H    CARTESIAN X    -6.238428     11.541210  KCAL/ANGSTROM
     92         31  H    CARTESIAN Y    -4.253862      7.106197  KCAL/ANGSTROM
     93         31  H    CARTESIAN Z    -1.951886     19.502637  KCAL/ANGSTROM
     94         32  H    CARTESIAN X    -5.582272     30.066222  KCAL/ANGSTROM
     95         32  H    CARTESIAN Y    -5.336729     -2.006145  KCAL/ANGSTROM
     96         32  H    CARTESIAN Z    -2.790272      5.311443  KCAL/ANGSTROM
     97         33  O    CARTESIAN X    -9.868066     -0.782053  KCAL/ANGSTROM
     98         33  O    CARTESIAN Y    -6.023387     -4.773746  KCAL/ANGSTROM
     99         33  O    CARTESIAN Z     1.465675    -17.708444  KCAL/ANGSTROM
    100         34  H    CARTESIAN X    -9.931254     -0.323982  KCAL/ANGSTROM
    101         34  H    CARTESIAN Y    -6.215246      4.603172  KCAL/ANGSTROM
    102         34  H    CARTESIAN Z     2.415974     10.280250  KCAL/ANGSTROM
    103         35  H    CARTESIAN X    -8.935488     14.462824  KCAL/ANGSTROM
    104         35  H    CARTESIAN Y    -5.975328      1.588008  KCAL/ANGSTROM
    105         35  H    CARTESIAN Z     1.206032     -0.755998  KCAL/ANGSTROM
    106         36  O    CARTESIAN X    -2.037435     40.205827  KCAL/ANGSTROM
    107         36  O    CARTESIAN Y    -5.736976    -27.488914  KCAL/ANGSTROM
    108         36  O    CARTESIAN Z     4.208889     -2.019047  KCAL/ANGSTROM
    109         37  H    CARTESIAN X    -2.785005    -13.659593  KCAL/ANGSTROM
    110         37  H    CARTESIAN Y    -5.963383     12.404070  KCAL/ANGSTROM
    111         37  H    CARTESIAN Z     4.827309      5.318192  KCAL/ANGSTROM
    112         38  H    CARTESIAN X    -2.187429    -10.310480  KCAL/ANGSTROM
    113         38  H    CARTESIAN Y    -4.762283      9.728039  KCAL/ANGSTROM
    114         38  H    CARTESIAN Z     4.127084      3.710579  KCAL/ANGSTROM
    115         39  O    CARTESIAN X    -4.705437    -63.649567  KCAL/ANGSTROM
    116         39  O    CARTESIAN Y    -2.947767      7.995623  KCAL/ANGSTROM
    117         39  O    CARTESIAN Z    -1.651065    -24.881551  KCAL/ANGSTROM
    118         40  H    CARTESIAN X    -3.751680     43.603347  KCAL/ANGSTROM
    119         40  H    CARTESIAN Y    -3.053970     -8.263817  KCAL/ANGSTROM
    120         40  H    CARTESIAN Z    -2.033977     -0.622836  KCAL/ANGSTROM
    121         41  H    CARTESIAN X    -4.488985     17.019409  KCAL/ANGSTROM
    122         41  H    CARTESIAN Y    -2.654890     -2.870224  KCAL/ANGSTROM
    123         41  H    CARTESIAN Z    -0.719787     23.698619  KCAL/ANGSTROM
    124         42  O    CARTESIAN X     0.038377     10.915594  KCAL/ANGSTROM
    125         42  O    CARTESIAN Y    -5.952674    -34.696299  KCAL/ANGSTROM
    126         42  O    CARTESIAN Z     5.633980     10.045145  KCAL/ANGSTROM
    127         43  H    CARTESIAN X    -0.799397    -15.590010  KCAL/ANGSTROM
    128         43  H    CARTESIAN Y    -5.875955     22.207935  KCAL/ANGSTROM
    129         43  H    CARTESIAN Z     5.070650     -8.646653  KCAL/ANGSTROM
    130         44  H    CARTESIAN X     0.277515    -11.211147  KCAL/ANGSTROM
    131         44  H    CARTESIAN Y    -5.003549     16.776222  KCAL/ANGSTROM
    132         44  H    CARTESIAN Z     5.583616     -9.672535  KCAL/ANGSTROM
    133         45  O    CARTESIAN X    -9.432612    -41.368524  KCAL/ANGSTROM
    134         45  O    CARTESIAN Y    -6.762183     -1.552909  KCAL/ANGSTROM
    135         45  O    CARTESIAN Z     4.170788     26.353639  KCAL/ANGSTROM
    136         46  H    CARTESIAN X    -8.518216     19.452133  KCAL/ANGSTROM
    137         46  H    CARTESIAN Y    -6.836374     22.243715  KCAL/ANGSTROM
    138         46  H    CARTESIAN Z     3.749126      4.990702  KCAL/ANGSTROM
    139         47  H    CARTESIAN X    -9.274508     11.927908  KCAL/ANGSTROM
    140         47  H    CARTESIAN Y    -6.017505    -15.063002  KCAL/ANGSTROM
    141         47  H    CARTESIAN Z     4.702233    -17.811301  KCAL/ANGSTROM
    142         48  O    CARTESIAN X    -4.045454    -18.270093  KCAL/ANGSTROM
    143         48  O    CARTESIAN Y    -5.647254     -6.075583  KCAL/ANGSTROM
    144         48  O    CARTESIAN Z    -3.005684    -18.366023  KCAL/ANGSTROM
    145         49  H    CARTESIAN X    -3.791171      3.642337  KCAL/ANGSTROM
    146         49  H    CARTESIAN Y    -5.056600     -2.998024  KCAL/ANGSTROM
    147         49  H    CARTESIAN Z    -3.699563     20.237865  KCAL/ANGSTROM
    148         50  H    CARTESIAN X    -3.556655      5.285238  KCAL/ANGSTROM
    149         50  H    CARTESIAN Y    -5.339437      4.932243  KCAL/ANGSTROM
    150         50  H    CARTESIAN Z    -2.231827     -3.830219  KCAL/ANGSTROM
    151         51  O    CARTESIAN X    -7.099638     -9.434179  KCAL/ANGSTROM
    152         51  O    CARTESIAN Y    -7.242109    -44.271958  KCAL/ANGSTROM
    153         51  O    CARTESIAN Z     2.831417    -23.286575  KCAL/ANGSTROM
    154         52  H    CARTESIAN X    -6.531213      9.541890  KCAL/ANGSTROM
    155         52  H    CARTESIAN Y    -6.632787     22.833920  KCAL/ANGSTROM
    156         52  H    CARTESIAN Z     3.377811      4.138912  KCAL/ANGSTROM
    157         53  H    CARTESIAN X    -7.113681     13.208922  KCAL/ANGSTROM
    158         53  H    CARTESIAN Y    -6.671197     22.013410  KCAL/ANGSTROM
    159         53  H    CARTESIAN Z     1.997323     -0.178929  KCAL/ANGSTROM
    160         54  O    CARTESIAN X    -1.522764     -6.918056  KCAL/ANGSTROM
    161         54  O    CARTESIAN Y    -0.497576     18.776460  KCAL/ANGSTROM
    162         54  O    CARTESIAN Z     3.315656     27.374808  KCAL/ANGSTROM
    163         55  H    CARTESIAN X    -2.335419      2.935389  KCAL/ANGSTROM
    164         55  H    CARTESIAN Y    -0.930691     -6.632403  KCAL/ANGSTROM
    165         55  H    CARTESIAN Z     3.069449     -8.250835  KCAL/ANGSTROM
    166         56  H    CARTESIAN X    -0.891542      3.601660  KCAL/ANGSTROM
    167         56  H    CARTESIAN Y    -0.712973    -12.016242  KCAL/ANGSTROM
    168         56  H    CARTESIAN Z     2.578947    -19.070476  KCAL/ANGSTROM
    169         57  H    CARTESIAN X    -6.810833      9.583062  KCAL/ANGSTROM
    170         57  H    CARTESIAN Y    -3.624773     -5.909095  KCAL/ANGSTROM
    171         57  H    CARTESIAN Z     0.900967      4.461394  KCAL/ANGSTROM
    172         58  H    CARTESIAN X    -3.332149    -20.134064  KCAL/ANGSTROM
    173         58  H    CARTESIAN Y    -5.765986      2.846230  KCAL/ANGSTROM
    174         58  H    CARTESIAN Z     0.684974      7.322781  KCAL/ANGSTROM




   ATOM   CHEMICAL          X               Y               Z
  NUMBER   SYMBOL      (ANGSTROMS)     (ANGSTROMS)     (ANGSTROMS)
 
     1       C         -6.48627400  *  -4.66532100  *   0.90543500  *
     2       O         -7.32195000  *  -5.60533000  *   0.86009600  *
     3       N         -5.16900400  *  -4.91050200  *   0.98019700  *
     4       H         -4.47792600  *  -3.96286900  *   0.94066400  *
     5       C         -4.30634200  *  -6.09310400  *   1.04834900  *
     6       H         -4.17300700  *  -6.36736700  *   2.09218600  *
     7       C         -4.77250300  *  -7.34213700  *   0.30707400  *
     8       H         -5.89636900  *  -7.26885300  *   0.38958800  *
     9       H         -4.47292300  *  -7.20944700  *  -0.79342700  *
    10       C         -4.37067100  *  -8.64333100  *   0.85963400  *
    11       C         -3.30943300  *  -9.38946900  *   0.26268800  *
    12       H         -2.71829700  *  -8.77127100  *  -0.38484800  *
    13       C         -2.83137100  * -10.53796000  *   0.77154200  *
    14       H         -1.94126400  * -11.03335300  *   0.31145600  *
    15       C         -3.47413100  * -11.11505400  *   1.87624500  *
    16       H         -3.14519700  * -12.02649200  *   2.36789300  *
    17       C         -4.92366800  *  -9.21198400  *   1.97719500  *
    18       H         -5.73662300  *  -8.61942300  *   2.50204000  *
    19       C         -4.47159400  * -10.38934200  *   2.54223500  *
    20       H         -4.88916200  * -10.76665800  *   3.50497500  *
    21       O          2.35705900  *  -8.81012000  *  -5.25601600  *
    22       H          2.92170500  *  -8.11589100  *  -4.71692900  *
    23       H          1.69774500  *  -8.21924800  *  -5.69530800  *
    24       O         -8.59791200  *  -6.09703600  *  -1.47467300  *
    25       H         -7.95789900  *  -5.66241200  *  -1.95011700  *
    26       H         -8.26862000  *  -5.82019000  *  -0.57770800  *
    27       O         -3.39281400  *  -8.17728400  *  -3.38946500  *
    28       H         -3.81352200  *  -7.34381100  *  -3.08624300  *
    29       H         -2.48993300  *  -7.87621500  *  -3.43047300  *
    30       O         -6.49149500  *  -4.90459900  *  -2.65474100  *
    31       H         -6.23842800  *  -4.25386200  *  -1.95188600  *
    32       H         -5.58227200  *  -5.33672900  *  -2.79027200  *
    33       O         -9.86806600  *  -6.02338700  *   1.46567500  *
    34       H         -9.93125400  *  -6.21524600  *   2.41597400  *
    35       H         -8.93548800  *  -5.97532800  *   1.20603200  *
    36       O         -2.03743500  *  -5.73697600  *   4.20888900  *
    37       H         -2.78500500  *  -5.96338300  *   4.82730900  *
    38       H         -2.18742900  *  -4.76228300  *   4.12708400  *
    39       O         -4.70543700  *  -2.94776700  *  -1.65106500  *
    40       H         -3.75168000  *  -3.05397000  *  -2.03397700  *
    41       H         -4.48898500  *  -2.65489000  *  -0.71978700  *
    42       O          0.03837700  *  -5.95267400  *   5.63398000  *
    43       H         -0.79939700  *  -5.87595500  *   5.07065000  *
    44       H          0.27751500  *  -5.00354900  *   5.58361600  *
    45       O         -9.43261200  *  -6.76218300  *   4.17078800  *
    46       H         -8.51821600  *  -6.83637400  *   3.74912600  *
    47       H         -9.27450800  *  -6.01750500  *   4.70223300  *
    48       O         -4.04545400  *  -5.64725400  *  -3.00568400  *
    49       H         -3.79117100  *  -5.05660000  *  -3.69956300  *
    50       H         -3.55665500  *  -5.33943700  *  -2.23182700  *
    51       O         -7.09963800  *  -7.24210900  *   2.83141700  *
    52       H         -6.53121300  *  -6.63278700  *   3.37781100  *
    53       H         -7.11368100  *  -6.67119700  *   1.99732300  *
    54       O         -1.52276400  *  -0.49757600  *   3.31565600  *
    55       H         -2.33541900  *  -0.93069100  *   3.06944900  *
    56       H         -0.89154200  *  -0.71297300  *   2.57894700  *
    57       H         -6.81083300  *  -3.62477300  *   0.90096700  *
    58       H         -3.33214900  *  -5.76598600  *   0.68497400  *

                             CARTESIAN COORDINATES

   1    C       -6.486274000    -4.665321000     0.905435000
   2    O       -7.321950000    -5.605330000     0.860096000
   3    N       -5.169004000    -4.910502000     0.980197000
   4    H       -4.477926000    -3.962869000     0.940664000
   5    C       -4.306342000    -6.093104000     1.048349000
   6    H       -4.173007000    -6.367367000     2.092186000
   7    C       -4.772503000    -7.342137000     0.307074000
   8    H       -5.896369000    -7.268853000     0.389588000
   9    H       -4.472923000    -7.209447000    -0.793427000
  10    C       -4.370671000    -8.643331000     0.859634000
  11    C       -3.309433000    -9.389469000     0.262688000
  12    H       -2.718297000    -8.771271000    -0.384848000
  13    C       -2.831371000   -10.537960000     0.771542000
  14    H       -1.941264000   -11.033353000     0.311456000
  15    C       -3.474131000   -11.115054000     1.876245000
  16    H       -3.145197000   -12.026492000     2.367893000
  17    C       -4.923668000    -9.211984000     1.977195000
  18    H       -5.736623000    -8.619423000     2.502040000
  19    C       -4.471594000   -10.389342000     2.542235000
  20    H       -4.889162000   -10.766658000     3.504975000
  21    O        2.357059000    -8.810120000    -5.256016000
  22    H        2.921705000    -8.115891000    -4.716929000
  23    H        1.697745000    -8.219248000    -5.695308000
  24    O       -8.597912000    -6.097036000    -1.474673000
  25    H       -7.957899000    -5.662412000    -1.950117000
  26    H       -8.268620000    -5.820190000    -0.577708000
  27    O       -3.392814000    -8.177284000    -3.389465000
  28    H       -3.813522000    -7.343811000    -3.086243000
  29    H       -2.489933000    -7.876215000    -3.430473000
  30    O       -6.491495000    -4.904599000    -2.654741000
  31    H       -6.238428000    -4.253862000    -1.951886000
  32    H       -5.582272000    -5.336729000    -2.790272000
  33    O       -9.868066000    -6.023387000     1.465675000
  34    H       -9.931254000    -6.215246000     2.415974000
  35    H       -8.935488000    -5.975328000     1.206032000
  36    O       -2.037435000    -5.736976000     4.208889000
  37    H       -2.785005000    -5.963383000     4.827309000
  38    H       -2.187429000    -4.762283000     4.127084000
  39    O       -4.705437000    -2.947767000    -1.651065000
  40    H       -3.751680000    -3.053970000    -2.033977000
  41    H       -4.488985000    -2.654890000    -0.719787000
  42    O        0.038377000    -5.952674000     5.633980000
  43    H       -0.799397000    -5.875955000     5.070650000
  44    H        0.277515000    -5.003549000     5.583616000
  45    O       -9.432612000    -6.762183000     4.170788000
  46    H       -8.518216000    -6.836374000     3.749126000
  47    H       -9.274508000    -6.017505000     4.702233000
  48    O       -4.045454000    -5.647254000    -3.005684000
  49    H       -3.791171000    -5.056600000    -3.699563000
  50    H       -3.556655000    -5.339437000    -2.231827000
  51    O       -7.099638000    -7.242109000     2.831417000
  52    H       -6.531213000    -6.632787000     3.377811000
  53    H       -7.113681000    -6.671197000     1.997323000
  54    O       -1.522764000    -0.497576000     3.315656000
  55    H       -2.335419000    -0.930691000     3.069449000
  56    H       -0.891542000    -0.712973000     2.578947000
  57    H       -6.810833000    -3.624773000     0.900967000
  58    H       -3.332149000    -5.765986000     0.684974000


           Empirical Formula: C9 H35 N O13  =    58 atoms



      MOLECULAR POINT GROUP   :   C1  


                EIGENVECTORS  


   Root No.      69        70        71        72        73        74        75        76

                69 A      70 A      71 A      72 A      73 A      74 A      75 A      76 A   

               -12.593   -12.527   -12.500   -12.465   -12.230   -11.913   -11.227   -11.071
  
  S   C    1    0.0000   -0.0000   -0.0008    0.0026   -0.0251    0.0636   -0.0000   -0.0022
  Px  C    1   -0.0010   -0.0000    0.0039    0.0010    0.0245   -0.0591   -0.0037   -0.0046
  Py  C    1    0.0032   -0.0000    0.0018    0.0033   -0.0453    0.1352    0.0025   -0.0073
  Pz  C    1   -0.0051   -0.0000   -0.0093    0.0030    0.0118    0.0057    0.0249    0.1943
  S   O    2    0.0019   -0.0000    0.0029    0.0010    0.0022    0.0162    0.0009    0.0029
  Px  O    2    0.0019   -0.0001   -0.0029    0.0050   -0.2193    0.5185    0.0134   -0.0014
  Py  O    2   -0.0048    0.0001   -0.0024   -0.0105    0.1990   -0.5121   -0.0085    0.0210
  Pz  O    2    0.0042    0.0000   -0.0004    0.0196   -0.0414   -0.0425   -0.0709   -0.4708
  S   N    3    0.0003    0.0000   -0.0009   -0.0018    0.0354   -0.0558    0.0020    0.0100
  Px  N    3    0.0035   -0.0000   -0.0024    0.0021   -0.0991    0.2286    0.0010   -0.0449
  Py  N    3   -0.0020   -0.0000   -0.0004   -0.0062   -0.0232   -0.0518    0.0006    0.0121
  Pz  N    3   -0.0060   -0.0000   -0.0115   -0.0154    0.0371    0.0995    0.0995    0.6788
  S   H    4    0.0004   -0.0000   -0.0012   -0.0024   -0.0511    0.0568   -0.0008   -0.0244
  S   C    5   -0.0001   -0.0000    0.0005    0.0019   -0.0121   -0.0082    0.0026   -0.0131
  Px  C    5   -0.0060   -0.0000    0.0023    0.0053    0.0709   -0.1791   -0.0010    0.0860
  Py  C    5   -0.0017   -0.0000    0.0023    0.0079    0.0186    0.0319   -0.0042    0.0521
  Pz  C    5    0.0039   -0.0000    0.0071   -0.0163    0.0029    0.0066   -0.0272   -0.2476
  S   H    6    0.0030   -0.0000    0.0059   -0.0130   -0.0047   -0.0225   -0.0303   -0.2427
  S   C    7   -0.0015    0.0000   -0.0000   -0.0016    0.0169    0.0111    0.0101    0.0308
  Px  C    7    0.0086   -0.0000   -0.0092   -0.0098    0.0263    0.2412    0.0227   -0.0502
  Py  C    7   -0.0010    0.0000   -0.0038   -0.0194   -0.0643    0.0058    0.0039    0.0730
  Pz  C    7    0.0005    0.0000   -0.0035    0.0370   -0.0359   -0.0395    0.0224    0.1302
  S   H    8   -0.0057    0.0000    0.0042    0.0079   -0.0275   -0.1440   -0.0074    0.0693
  S   H    9    0.0021   -0.0000    0.0010   -0.0241    0.0432    0.0864   -0.0119   -0.0950
  S   C   10    0.0007    0.0000   -0.0005    0.0085    0.0074    0.0197    0.0098    0.0060
  Px  C   10    0.0014    0.0000   -0.0030    0.0003   -0.1760   -0.0169   -0.0030    0.1058
  Py  C   10    0.0037    0.0000   -0.0028    0.0187    0.0495    0.1079   -0.0042    0.0531
  Pz  C   10    0.0005    0.0000   -0.0016   -0.0083    0.1497    0.1296   -0.0236    0.0479
  S   C   11   -0.0007    0.0000    0.0003   -0.0049   -0.0196   -0.0303   -0.0465    0.0137
  Px  C   11   -0.0000    0.0000    0.0003   -0.0058    0.1998    0.1106    0.2700   -0.0398
  Py  C   11   -0.0020    0.0000    0.0000   -0.0210   -0.0476   -0.0440    0.2040    0.0127
  Pz  C   11    0.0004    0.0000   -0.0003    0.0135   -0.1252   -0.0443    0.3814    0.0043
  S   H   12   -0.0012    0.0000    0.0005   -0.0141    0.1209    0.0396   -0.0181   -0.0094
  S   C   13    0.0004   -0.0000   -0.0003    0.0006   -0.0184   -0.0011    0.0199   -0.0021
  Px  C   13   -0.0019    0.0000    0.0017   -0.0038   -0.1214   -0.1036    0.2902   -0.0536
  Py  C   13   -0.0003    0.0000    0.0019    0.0132    0.0270   -0.0168    0.2731   -0.0707
  Pz  C   13   -0.0026    0.0000    0.0025   -0.0113    0.0749   -0.0278    0.3041   -0.0786
  S   H   14   -0.0001   -0.0000   -0.0006   -0.0032   -0.1347   -0.0580   -0.0020    0.0195
  S   C   15    0.0004   -0.0000   -0.0005   -0.0039   -0.0045    0.0052   -0.0098    0.0062
  Px  C   15   -0.0033    0.0000    0.0048    0.0092    0.1280   -0.0381   -0.0065   -0.0885
  Py  C   15   -0.0016   -0.0000    0.0015   -0.0181   -0.0807   -0.0862   -0.0216   -0.0458
  Pz  C   15   -0.0013    0.0000    0.0026    0.0091   -0.1212   -0.1148    0.0058   -0.0544
  S   H   16    0.0001    0.0000    0.0009    0.0168    0.0468    0.0145    0.0113   -0.0076
  S   C   17    0.0008   -0.0000   -0.0009   -0.0124   -0.0414   -0.0020    0.0011   -0.0046
  Px  C   17   -0.0013    0.0000    0.0021    0.0245    0.2371    0.1217   -0.3276    0.0535
  Py  C   17    0.0015   -0.0000   -0.0022   -0.0268   -0.1330   -0.0080   -0.2382    0.0671
  Pz  C   17    0.0019   -0.0000   -0.0013    0.0073   -0.2047   -0.0651   -0.2347    0.0977
  S   H   18    0.0012   -0.0000   -0.0019   -0.0167   -0.2200   -0.0811    0.0041    0.0217
  S   C   19   -0.0002    0.0000    0.0002    0.0028    0.0246    0.0080   -0.0120   -0.0000
  Px  C   19   -0.0008   -0.0000    0.0015   -0.0056   -0.1438   -0.0948   -0.3613    0.0183
  Py  C   19   -0.0013    0.0000    0.0033    0.0253    0.0863   -0.0077   -0.2422   -0.0040
  Pz  C   19   -0.0018   -0.0000    0.0023   -0.0032    0.0831    0.0021   -0.2374   -0.0067
  S   H   20   -0.0008   -0.0000    0.0004   -0.0061    0.1029    0.0426    0.0057   -0.0114
  S   O   21    0.0000    0.0000   -0.0000   -0.0000    0.0000    0.0000    0.0000    0.0000
  Px  O   21    0.0000    0.0000    0.0000   -0.0000    0.0000    0.0000   -0.0000   -0.0000
  Py  O   21   -0.0000   -0.0000    0.0000    0.0000   -0.0000   -0.0000    0.0000    0.0000
  Pz  O   21   -0.0000    0.0000   -0.0000   -0.0000   -0.0000    0.0000    0.0000   -0.0000
  S   H   22    0.0000    0.0000    0.0000    0.0000   -0.0000    0.0000   -0.0000   -0.0000
  S   H   23   -0.0000   -0.0000   -0.0000    0.0000   -0.0000   -0.0000   -0.0000   -0.0000
  S   O   24    0.0437    0.0000    0.0145   -0.0022    0.0045   -0.0041    0.0007    0.0038
  Px  O   24   -0.0076   -0.0001   -0.6097    0.0170   -0.0119    0.0174   -0.0069   -0.0504
  Py  O   24   -0.3562    0.0001    0.7406   -0.0058   -0.0224    0.0237   -0.0037   -0.0267
  Pz  O   24    0.0587    0.0000   -0.0238    0.0032   -0.0266    0.0381   -0.0103   -0.0759
  S   H   25   -0.0335   -0.0000   -0.0112    0.0012   -0.0006   -0.0001    0.0001    0.0013
  S   H   26   -0.0103    0.0000   -0.0042    0.0011   -0.0033    0.0026   -0.0001    0.0012
  S   O   27   -0.0037   -0.0000   -0.0007    0.0015    0.0006    0.0007    0.0003   -0.0001
  Px  O   27    0.0016   -0.0000    0.0024    0.1353   -0.0112   -0.0025    0.0013   -0.0004
  Py  O   27    0.0123    0.0000   -0.0018   -0.2817    0.0149   -0.0010   -0.0004    0.0045
  Pz  O   27    0.0204   -0.0000    0.0188    0.9383   -0.0733   -0.0245    0.0092    0.0098
  S   H   28    0.0031    0.0000    0.0006   -0.0031   -0.0009   -0.0013    0.0000    0.0008
  S   H   29    0.0012    0.0000    0.0002   -0.0010   -0.0003    0.0001   -0.0003   -0.0004
  S   O   30    0.0075    0.0000    0.0022   -0.0024   -0.0001    0.0005   -0.0001   -0.0008
  Px  O   30   -0.2305   -0.0000   -0.0645    0.0183   -0.0016   -0.0029    0.0014    0.0087
  Py  O   30   -0.6217   -0.0000   -0.1902    0.0071   -0.0014   -0.0014    0.0002    0.0036
  Pz  O   30    0.6490    0.0000    0.1929   -0.0095    0.0070   -0.0050    0.0020    0.0128
  S   H   31   -0.0076   -0.0000   -0.0038    0.0008    0.0005   -0.0006    0.0001    0.0003
  S   H   32   -0.0090   -0.0000   -0.0012    0.0021   -0.0005    0.0001    0.0000   -0.0001
  S   O   33    0.0003    0.0000   -0.0007   -0.0001    0.0019   -0.0054   -0.0000   -0.0002
  Px  O   33   -0.0010   -0.0000   -0.0022    0.0013   -0.0352    0.1180    0.0067    0.0255
  Py  O   33    0.0042   -0.0000   -0.0018   -0.0008   -0.0150    0.0159    0.0005    0.0015
  Pz  O   33   -0.0001   -0.0000    0.0025    0.0005   -0.0001    0.0153    0.0008    0.0038
  S   H   34   -0.0002    0.0000    0.0013    0.0000    0.0014   -0.0039   -0.0003   -0.0007
  S   H   35   -0.0001   -0.0000   -0.0001    0.0001   -0.0010    0.0004   -0.0004   -0.0017
  S   O   36    0.0000    0.0051    0.0000   -0.0000   -0.0001    0.0002    0.0001    0.0008
  Px  O   36    0.0004    0.0050    0.0012   -0.0020    0.0005   -0.0041   -0.0019   -0.0108
  Py  O   36    0.0001   -0.0060    0.0002   -0.0004    0.0001   -0.0005   -0.0002   -0.0010
  Pz  O   36    0.0005   -0.0168    0.0014   -0.0021    0.0010   -0.0045   -0.0012   -0.0079
  S   H   37   -0.0000   -0.0051   -0.0000    0.0001    0.0001   -0.0001   -0.0000   -0.0001
  S   H   38   -0.0000   -0.0023   -0.0000    0.0000   -0.0000   -0.0000   -0.0001   -0.0004
  S   O   39    0.0061    0.0000    0.0020   -0.0003   -0.0004   -0.0003    0.0001    0.0009
  Px  O   39   -0.0067    0.0000   -0.0022    0.0013    0.0040   -0.0028    0.0007    0.0051
  Py  O   39   -0.0311   -0.0000   -0.0088   -0.0003   -0.0074    0.0035   -0.0014   -0.0088
  Pz  O   39    0.0018    0.0000    0.0002    0.0000    0.0118   -0.0110    0.0020    0.0157
  S   H   40   -0.0039   -0.0000   -0.0013    0.0003   -0.0008    0.0014   -0.0003   -0.0022
  S   H   41   -0.0064    0.0000   -0.0020    0.0001    0.0010   -0.0008   -0.0001   -0.0010
  S   O   42    0.0001   -0.0016    0.0001   -0.0002    0.0001   -0.0003   -0.0000   -0.0002
  Px  O   42    0.0002   -0.5389    0.0007   -0.0011    0.0004   -0.0022   -0.0007   -0.0043
  Py  O   42   -0.0001    0.1821   -0.0003    0.0005   -0.0002    0.0008    0.0002    0.0014
  Pz  O   42    0.0002    0.8222    0.0005   -0.0009    0.0002   -0.0016   -0.0005   -0.0032
  S   H   43   -0.0000   -0.0019   -0.0001    0.0002   -0.0000    0.0002   -0.0000   -0.0001
  S   H   44   -0.0000    0.0004   -0.0000    0.0000   -0.0000    0.0000   -0.0000   -0.0001
  S   O   45    0.0005   -0.0000   -0.0004   -0.0034   -0.0184   -0.0015    0.0000   -0.0000
  Px  O   45   -0.0039    0.0000    0.0047    0.0269    0.1830    0.0246    0.0005    0.0046
  Py  O   45    0.0009    0.0000   -0.0045    0.0058    0.0243    0.0084    0.0001    0.0001
  Pz  O   45   -0.0008   -0.0000    0.0055   -0.0105   -0.0571   -0.0155   -0.0003   -0.0014
  S   H   46   -0.0004    0.0000    0.0002    0.0028    0.0139    0.0006    0.0000    0.0002
  S   H   47   -0.0001    0.0000    0.0001    0.0002   -0.0005   -0.0005   -0.0000   -0.0002
  S   O   48    0.0010    0.0000    0.0001    0.0034   -0.0008   -0.0013    0.0003    0.0015
  Px  O   48   -0.0394   -0.0000   -0.0076    0.0232   -0.0025    0.0002    0.0003    0.0001
  Py  O   48    0.0398    0.0000    0.0089   -0.0225    0.0010    0.0004   -0.0001   -0.0002
  Pz  O   48    0.0062    0.0000    0.0006   -0.0122   -0.0016   -0.0022    0.0005    0.0024
  S   H   49    0.0013   -0.0000    0.0005   -0.0016    0.0011    0.0017   -0.0003   -0.0019
  S   H   50   -0.0024    0.0000   -0.0006   -0.0038    0.0001   -0.0001   -0.0001   -0.0002
  S   O   51    0.0001   -0.0000    0.0001    0.0032    0.0164    0.0173   -0.0015   -0.0038
  Px  O   51   -0.0085    0.0001    0.0065    0.0798    0.5213    0.1125    0.0003   -0.0092
  Py  O   51    0.0034   -0.0000   -0.0036   -0.0550   -0.2472   -0.1655    0.0145    0.0863
  Pz  O   51    0.0047   -0.0000   -0.0029   -0.0245   -0.2614    0.0448   -0.0075   -0.0654
  S   H   52   -0.0001    0.0000   -0.0000   -0.0006   -0.0068   -0.0032    0.0012   -0.0007
  S   H   53   -0.0001    0.0000   -0.0001   -0.0022   -0.0066   -0.0048   -0.0003   -0.0058
  S   O   54   -0.0000   -0.0000   -0.0000   -0.0000   -0.0000    0.0000   -0.0000   -0.0000
  Px  O   54   -0.0000   -0.0000   -0.0000   -0.0000   -0.0001    0.0001    0.0000   -0.0000
  Py  O   54   -0.0000   -0.0000   -0.0000   -0.0000   -0.0001    0.0001    0.0000   -0.0000
  Pz  O   54   -0.0000   -0.0000   -0.0000   -0.0000   -0.0001    0.0001    0.0000   -0.0000
  S   H   55    0.0000    0.0000    0.0000    0.0000    0.0000   -0.0000    0.0000    0.0000
  S   H   56    0.0000    0.0000    0.0000    0.0000    0.0000    0.0000    0.0000    0.0000
  S   H   57    0.0035   -0.0000    0.0003    0.0049   -0.0801    0.2221    0.0039   -0.0114
  S   H   58   -0.0056   -0.0000    0.0006    0.0105    0.0448   -0.1261    0.0083    0.1414


   Root No.      77        78        79        80        81        82        83        84

                77 A      78 A      79 A      80 A      81 A      82 A      83 A      84 A   

               -10.602    -1.185    -0.810    -0.072     0.819     1.296     2.273     2.395
  
  S   C    1    0.0060    0.0032   -0.0009    0.0200   -0.2905   -0.0255    0.1564   -0.2153
  Px  C    1    0.0194   -0.0014    0.0023   -0.0147   -0.3838   -0.0119   -0.1780    0.1608
  Py  C    1   -0.0128   -0.0026    0.0013   -0.0143    0.0769    0.0127   -0.2192    0.2080
  Pz  C    1   -0.0449   -0.0270    0.0321    0.8043    0.0362   -0.0266    0.0029    0.0095
  S   O    2   -0.0039   -0.0032    0.0024    0.0050   -0.0146    0.0059   -0.1354    0.1374
  Px  O    2   -0.0716   -0.0065    0.0040    0.0099    0.1132    0.0143   -0.1377    0.1511
  Py  O    2    0.0461    0.0002   -0.0002   -0.0151   -0.0492    0.0033   -0.1519    0.1562
  Pz  O    2    0.0984    0.0139   -0.0152   -0.3537   -0.0176    0.0108   -0.0312    0.0415
  S   N    3   -0.0050    0.0061   -0.0063   -0.0389    0.4386    0.0134    0.0045    0.0100
  Px  N    3   -0.0293    0.0030   -0.0019    0.0235   -0.0341   -0.0137    0.0254   -0.0623
  Py  N    3   -0.0248   -0.0116    0.0079   -0.0048   -0.1505    0.0054   -0.1171    0.0711
  Pz  N    3   -0.1460    0.0051   -0.0099   -0.4352   -0.0519    0.0254    0.0067   -0.0016
  S   H    4   -0.0272   -0.0153    0.0109    0.0476   -0.3637    0.0032    0.1490   -0.1122
  S   C    5   -0.0538   -0.0546    0.0309    0.0248   -0.2041    0.0576   -0.0680    0.0427
  Px  C    5    0.0848    0.0429   -0.0268   -0.0413    0.3607   -0.0434    0.0558   -0.0636
  Py  C    5    0.1301    0.0711   -0.0376   -0.0001   -0.3840   -0.1059   -0.1040    0.0554
  Pz  C    5    0.1037    0.0432   -0.0339   -0.0137    0.0375   -0.0695    0.0104   -0.0011
  S   H    6    0.0532   -0.0069    0.0081    0.0898    0.0125    0.0137   -0.0127    0.0020
  S   C    7    0.0008    0.0150   -0.0144   -0.0348    0.0194   -0.0286   -0.0281   -0.0283
  Px  C    7   -0.1766   -0.0182    0.0006   -0.0250   -0.0034   -0.0263    0.0530   -0.0939
  Py  C    7   -0.0722    0.0202   -0.0075   -0.0463   -0.0579   -0.0608   -0.0680    0.0368
  Pz  C    7   -0.1175    0.0022   -0.0056   -0.0382    0.0081   -0.0420    0.0627    0.0322
  S   H    8    0.1358    0.0595   -0.0384   -0.0074    0.0618   -0.0596    0.0527   -0.0744
  S   H    9    0.0583    0.0320   -0.0149    0.0040   -0.0037   -0.0326    0.0458    0.0592
  S   C   10   -0.0037   -0.0012   -0.0013    0.0075   -0.0577    0.0094   -0.0293    0.0211
  Px  C   10    0.3688    0.3336   -0.1986    0.0153    0.0216   -0.2707    0.0110   -0.0496
  Py  C   10    0.2032    0.2245   -0.1160    0.0191   -0.0749   -0.1881   -0.0672    0.0627
  Pz  C   10    0.2912    0.3032   -0.1544    0.0097    0.0334   -0.2305    0.0030    0.0339
  S   C   11   -0.0298    0.0411    0.0320   -0.0032    0.0066   -0.0366   -0.0094    0.0203
  Px  C   11    0.1482   -0.2404   -0.2014    0.0101   -0.0124    0.2294    0.0176   -0.0538
  Py  C   11    0.1367   -0.1907   -0.1449    0.0034   -0.0089    0.1633   -0.0172    0.0287
  Pz  C   11    0.2353   -0.3009   -0.2539    0.0070   -0.0051    0.2912    0.0087    0.0200
  S   H   12   -0.0133   -0.0259   -0.0207   -0.0006    0.0071    0.0482    0.0119    0.0118
  S   C   13    0.0029    0.0005    0.0101    0.0007   -0.0070    0.0067   -0.0076    0.0114
  Px  C   13   -0.0904   -0.0289    0.3384   -0.0221    0.0153   -0.2595    0.0034   -0.0166
  Py  C   13   -0.1011   -0.0354    0.2928   -0.0178   -0.0001   -0.2258   -0.0158    0.0121
  Pz  C   13   -0.1214   -0.0100    0.3567   -0.0224    0.0186   -0.2442    0.0021    0.0095
  S   H   14    0.0258   -0.0124   -0.0043   -0.0012    0.0028   -0.0020   -0.0062    0.0242
  S   C   15    0.0159   -0.0210    0.0170   -0.0011   -0.0023   -0.0285   -0.0107    0.0089
  Px  C   15   -0.3596    0.3596   -0.1422    0.0236   -0.0118    0.2447    0.0154   -0.0330
  Py  C   15   -0.2504    0.2652   -0.0975    0.0181   -0.0124    0.1823   -0.0100    0.0140
  Pz  C   15   -0.2852    0.3006   -0.1213    0.0207   -0.0098    0.2316   -0.0029    0.0218
  S   H   16   -0.0116    0.0042   -0.0047    0.0006   -0.0037    0.0064   -0.0064    0.0097
  S   C   17   -0.0192    0.0052   -0.0066    0.0014    0.0032   -0.0080   -0.0176   -0.0000
  Px  C   17    0.2113   -0.0146    0.3879   -0.0116   -0.0020    0.2709    0.0419   -0.0621
  Py  C   17    0.1634   -0.0196    0.2844   -0.0045   -0.0103    0.1896   -0.0262    0.0217
  Pz  C   17    0.1933   -0.0204    0.3008   -0.0034   -0.0024    0.2342   -0.0038    0.0383
  S   H   18    0.0096   -0.0066   -0.0072   -0.0036    0.0072    0.0001    0.0474   -0.0686
  S   C   19   -0.0046   -0.0032   -0.0071    0.0009   -0.0083    0.0023   -0.0041    0.0015
  Px  C   19   -0.1715   -0.3432   -0.2260   -0.0111    0.0159   -0.2600    0.0111   -0.0245
  Py  C   19   -0.1431   -0.2571   -0.1425   -0.0077   -0.0054   -0.1999   -0.0241    0.0311
  Pz  C   19   -0.1245   -0.2502   -0.1486   -0.0086    0.0118   -0.1890   -0.0058    0.0163
  S   H   20    0.0026   -0.0036    0.0027   -0.0013    0.0018   -0.0171    0.0058   -0.0215
  S   O   21   -0.0000   -0.0000    0.0000    0.0000    0.0000    0.0000   -0.0001   -0.0001
  Px  O   21    0.0000    0.0000   -0.0000    0.0000   -0.0000   -0.0000    0.0000    0.0000
  Py  O   21   -0.0000   -0.0000    0.0000    0.0000    0.0000    0.0000   -0.0001   -0.0002
  Pz  O   21    0.0000    0.0000    0.0000    0.0000   -0.0000   -0.0000    0.0000    0.0000
  S   H   22   -0.0000    0.0000   -0.0000   -0.0000   -0.0000   -0.0000    0.0001    0.0002
  S   H   23    0.0000    0.0000   -0.0000   -0.0000   -0.0000   -0.0000    0.0002    0.0002
  S   O   24   -0.0001   -0.0003   -0.0000   -0.0135    0.0063    0.0032   -0.0731    0.0319
  Px  O   24    0.0020   -0.0008    0.0002   -0.0175    0.0081    0.0044   -0.1024    0.0272
  Py  O   24    0.0031   -0.0003   -0.0000   -0.0130    0.0064    0.0031   -0.0754    0.0236
  Pz  O   24    0.0061   -0.0002   -0.0005   -0.0379    0.0104    0.0056   -0.0747    0.0975
  S   H   25   -0.0002    0.0005   -0.0002    0.0055   -0.0057   -0.0029    0.0980    0.0004
  S   H   26   -0.0008    0.0003    0.0005    0.0432   -0.0162   -0.0083    0.1571   -0.1208
  S   O   27    0.0002   -0.0008    0.0000   -0.0000    0.0013    0.0015   -0.0618   -0.0665
  Px  O   27    0.0012    0.0003   -0.0002    0.0000   -0.0005   -0.0005    0.0033    0.0019
  Py  O   27   -0.0034   -0.0019    0.0005   -0.0000    0.0035    0.0033   -0.1335   -0.1414
  Pz  O   27   -0.0010   -0.0013   -0.0000   -0.0001    0.0010    0.0013   -0.0380   -0.0402
  S   H   28   -0.0004    0.0016   -0.0002    0.0000   -0.0034   -0.0036    0.1546    0.1657
  S   H   29    0.0001    0.0008    0.0001    0.0000   -0.0011   -0.0015    0.0697    0.0767
  S   O   30    0.0001   -0.0006    0.0004    0.0047    0.0068    0.0016   -0.1039   -0.0786
  Px  O   30   -0.0033   -0.0014    0.0008    0.0077    0.0110    0.0027   -0.1805   -0.1646
  Py  O   30    0.0009    0.0001    0.0002    0.0093    0.0048   -0.0007   -0.0013    0.0041
  Pz  O   30   -0.0039   -0.0008    0.0007    0.0126    0.0093    0.0009   -0.0726   -0.0403
  S   H   31    0.0001    0.0009   -0.0007   -0.0139   -0.0141   -0.0017    0.1608    0.1153
  S   H   32    0.0000    0.0011   -0.0006   -0.0033   -0.0097   -0.0035    0.2258    0.1935
  S   O   33   -0.0010   -0.0010    0.0008    0.0067    0.0137    0.0035   -0.0907    0.0994
  Px  O   33   -0.0199   -0.0026    0.0021    0.0159    0.0275    0.0065   -0.1420    0.1516
  Py  O   33   -0.0009    0.0001   -0.0001   -0.0006   -0.0009   -0.0003    0.0128   -0.0149
  Pz  O   33   -0.0012   -0.0002    0.0002    0.0030    0.0025    0.0012   -0.0532    0.0632
  S   H   34    0.0014    0.0008   -0.0007   -0.0060   -0.0132   -0.0040    0.1277   -0.1443
  S   H   35    0.0026    0.0023   -0.0019   -0.0167   -0.0338   -0.0077    0.1895   -0.2061
  S   O   36   -0.0004   -0.0001   -0.0001   -0.0009    0.0001   -0.0000   -0.0011    0.0014
  Px  O   36    0.0033    0.0001    0.0001    0.0016    0.0001    0.0001    0.0011   -0.0015
  Py  O   36   -0.0000   -0.0001    0.0000   -0.0005    0.0009    0.0001   -0.0010    0.0012
  Pz  O   36    0.0023    0.0000   -0.0001   -0.0003    0.0002   -0.0001   -0.0009    0.0012
  S   H   37    0.0002    0.0001    0.0002    0.0015    0.0001    0.0001    0.0019   -0.0027
  S   H   38    0.0002    0.0001    0.0000    0.0011   -0.0008   -0.0001    0.0019   -0.0023
  S   O   39   -0.0001    0.0003   -0.0002    0.0000    0.0193    0.0004   -0.0728   -0.0548
  Px  O   39    0.0001    0.0004   -0.0004   -0.0026    0.0253    0.0007   -0.1087   -0.0883
  Py  O   39    0.0012    0.0003   -0.0002   -0.0021    0.0041   -0.0003    0.0074    0.0102
  Pz  O   39    0.0004    0.0011   -0.0008   -0.0032    0.0335   -0.0001   -0.0312   -0.0085
  S   H   40    0.0002   -0.0001    0.0001   -0.0011   -0.0245   -0.0010    0.1553    0.1304
  S   H   41    0.0002   -0.0008    0.0007    0.0030   -0.0439   -0.0004    0.1170    0.0765
  S   O   42    0.0000   -0.0000   -0.0000   -0.0002   -0.0000   -0.0000   -0.0004    0.0005
  Px  O   42    0.0013    0.0000    0.0000    0.0005    0.0000    0.0000    0.0006   -0.0008
  Py  O   42   -0.0004   -0.0000   -0.0000   -0.0002   -0.0000   -0.0000   -0.0004    0.0005
  Pz  O   42    0.0009    0.0000    0.0000    0.0004    0.0000    0.0000    0.0005   -0.0006
  S   H   43    0.0001    0.0000    0.0000    0.0007    0.0001    0.0000    0.0009   -0.0013
  S   H   44    0.0000    0.0000    0.0000    0.0002    0.0000    0.0000    0.0004   -0.0006
  S   O   45   -0.0002   -0.0003    0.0005    0.0033    0.0017    0.0013   -0.0468    0.0570
  Px  O   45   -0.0048   -0.0007    0.0011    0.0078    0.0016    0.0022   -0.0766    0.0935
  Py  O   45   -0.0009   -0.0002    0.0002    0.0016    0.0019    0.0009   -0.0338    0.0408
  Pz  O   45    0.0025    0.0004   -0.0005   -0.0033   -0.0020   -0.0010    0.0264   -0.0301
  S   H   46    0.0005    0.0006   -0.0011   -0.0078   -0.0022   -0.0027    0.1030   -0.1269
  S   H   47    0.0003    0.0002   -0.0003   -0.0026   -0.0019   -0.0013    0.0552   -0.0681
  S   O   48   -0.0012   -0.0013    0.0005    0.0004    0.0069    0.0032   -0.1894   -0.1928
  Px  O   48   -0.0006   -0.0006    0.0002   -0.0012    0.0040    0.0019   -0.1194   -0.1322
  Py  O   48   -0.0003   -0.0006    0.0003    0.0005    0.0079    0.0024   -0.1846   -0.1860
  Pz  O   48   -0.0025   -0.0008    0.0003   -0.0003    0.0037    0.0010   -0.0345   -0.0323
  S   H   49    0.0014    0.0015   -0.0007   -0.0004   -0.0084   -0.0044    0.2872    0.2991
  S   H   50    0.0003    0.0015   -0.0007    0.0003   -0.0119   -0.0047    0.3150    0.3254
  S   O   51   -0.0011   -0.0016    0.0023    0.0176    0.0011    0.0031   -0.0830    0.0972
  Px  O   51   -0.0140   -0.0001    0.0006    0.0005    0.0005    0.0009   -0.0335    0.0409
  Py  O   51   -0.0099   -0.0043    0.0022    0.0353    0.0042    0.0048   -0.1389    0.1595
  Pz  O   51    0.0187    0.0047   -0.0054   -0.0394    0.0019   -0.0050    0.0607   -0.0634
  S   H   52    0.0010    0.0011   -0.0016   -0.0108   -0.0035   -0.0034    0.1205   -0.1462
  S   H   53    0.0008    0.0043   -0.0049   -0.0549   -0.0011   -0.0071    0.1837   -0.2100
  S   O   54    0.0000    0.0000   -0.0000   -0.0000    0.0004   -0.0000   -0.0004    0.0001
  Px  O   54   -0.0000   -0.0000    0.0000    0.0000   -0.0005    0.0000    0.0003   -0.0001
  Py  O   54   -0.0000   -0.0000    0.0000    0.0000   -0.0004    0.0000    0.0004   -0.0001
  Pz  O   54   -0.0000   -0.0000    0.0000    0.0000   -0.0005    0.0000    0.0005   -0.0001
  S   H   55   -0.0000   -0.0000    0.0000    0.0001   -0.0009    0.0000    0.0009   -0.0003
  S   H   56   -0.0000   -0.0000    0.0000    0.0000   -0.0004    0.0000    0.0006   -0.0002
  S   H   57   -0.0183    0.0013   -0.0015   -0.0083    0.2081    0.0113   -0.0054    0.0595
  S   H   58    0.0358    0.0062   -0.0030   -0.0385    0.0369    0.0084    0.0284    0.0149


              NET ATOMIC CHARGES AND DIPOLE CONTRIBUTIONS

  ATOM NO.   TYPE          CHARGE      No. of ELECS.   s-Pop       p-Pop       
    1          C           0.535211        3.4648     1.11808     2.34670
    2          O          -0.792642        6.7926     1.87000     4.92264
    3          N          -0.530222        5.5302     1.58350     3.94672
    4          H           0.441199        0.5588     0.55880
    5          C          -0.045867        4.0459     1.05613     2.98974
    6          H           0.139460        0.8605     0.86054
    7          C          -0.347234        4.3472     1.05820     3.28904
    8          H           0.205814        0.7942     0.79419
    9          H           0.182481        0.8175     0.81752
   10          C           0.009788        3.9902     1.07367     2.91655
   11          C          -0.232259        4.2323     1.08756     3.14470
   12          H           0.193402        0.8066     0.80660
   13          C          -0.118220        4.1182     1.08010     3.03812
   14          H           0.171711        0.8283     0.82829
   15          C          -0.191125        4.1911     1.08718     3.10395
   16          H           0.148543        0.8515     0.85146
   17          C          -0.223533        4.2235     1.09033     3.13320
   18          H           0.214200        0.7858     0.78580
   19          C          -0.237306        4.2373     1.09526     3.14205
   20          H           0.169432        0.8306     0.83057
   21          O          -0.880214        6.8802     1.84832     5.03189
   22          H           0.455525        0.5445     0.54447
   23          H           0.424688        0.5753     0.57531
   24          O          -0.765276        6.7653     1.81928     4.94600
   25          H           0.358111        0.6419     0.64189
   26          H           0.370888        0.6291     0.62911
   27          O          -0.730822        6.7308     1.82983     4.90099
   28          H           0.350533        0.6495     0.64947
   29          H           0.360397        0.6396     0.63960
   30          O          -0.792580        6.7926     1.84646     4.94612
   31          H           0.370206        0.6298     0.62979
   32          H           0.387764        0.6122     0.61224
   33          O          -0.836074        6.8361     1.80921     5.02687
   34          H           0.397622        0.6024     0.60238
   35          H           0.400599        0.5994     0.59940
   36          O          -0.761324        6.7613     1.83345     4.92787
   37          H           0.409083        0.5909     0.59092
   38          H           0.414014        0.5860     0.58599
   39          O          -0.885225        6.8852     1.84901     5.03622
   40          H           0.438487        0.5615     0.56151
   41          H           0.452072        0.5479     0.54793
   42          O          -0.834539        6.8345     1.84799     4.98655
   43          H           0.380369        0.6196     0.61963
   44          H           0.392375        0.6076     0.60762
   45          O          -0.768192        6.7682     1.82681     4.94138
   46          H           0.381555        0.6184     0.61845
   47          H           0.370900        0.6291     0.62910
   48          O          -0.724300        6.7243     1.79670     4.92760
   49          H           0.390517        0.6095     0.60948
   50          H           0.396719        0.6033     0.60328
   51          O          -0.773058        6.7731     1.85111     4.92194
   52          H           0.372706        0.6273     0.62729
   53          H           0.387962        0.6120     0.61204
   54          O          -0.861355        6.8614     1.81750     5.04385
   55          H           0.411338        0.5887     0.58866
   56          H           0.450017        0.5500     0.54998
   57          H           0.193394        0.8066     0.80661
   58          H           0.202283        0.7977     0.79772
 DIPOLE           X         Y         Z       TOTAL
 POINT-CHG.    17.961    21.333     1.532    27.929
 HYBRID         0.846     0.746     0.552     1.256
 SUM           18.807    22.079     2.083    29.078


          ATOMIC ORBITAL ELECTRON POPULATIONS

     Atom    s        px        py        pz   
    1  C   1.11808   0.74199   0.92198   0.68273
    2  O   1.87000   1.63814   1.59494   1.68956
    3  N   1.58350   1.14246   1.21858   1.58568
    4  H   0.55880
    5  C   1.05613   0.98478   0.88027   1.12469
    6  H   0.86054
    7  C   1.05820   1.19407   0.96819   1.12677
    8  H   0.79419
    9  H   0.81752
   10  C   1.07367   0.97043   0.98292   0.96320
   11  C   1.08756   1.03841   1.02502   1.08128
   12  H   0.80660
   13  C   1.08010   1.03833   1.01292   0.98686
   14  H   0.82829
   15  C   1.08718   1.01799   1.06228   1.02368
   16  H   0.85146
   17  C   1.09033   1.07173   1.02061   1.04086
   18  H   0.78580
   19  C   1.09526   1.03716   1.03118   1.07370
   20  H   0.83057
   21  O   1.84832   1.67560   1.55884   1.79746
   22  H   0.54447
   23  H   0.57531
   24  O   1.81928   1.66779   1.83208   1.44612
   25  H   0.64189
   26  H   0.62911
   27  O   1.82983   1.43686   1.51628   1.94785
   28  H   0.64947
   29  H   0.63960
   30  O   1.84646   1.53435   1.69135   1.72041
   31  H   0.62979
   32  H   0.61224
   33  O   1.80921   1.53767   1.97960   1.50959
   34  H   0.60238
   35  H   0.59940
   36  O   1.83345   1.65787   1.49770   1.77230
   37  H   0.59092
   38  H   0.58599
   39  O   1.84901   1.53000   1.95263   1.55359
   40  H   0.56151
   41  H   0.54793
   42  O   1.84799   1.64638   1.49660   1.84357
   43  H   0.61963
   44  H   0.60762
   45  O   1.82681   1.54543   1.65274   1.74321
   46  H   0.61845
   47  H   0.62910
   48  O   1.79670   1.77707   1.69653   1.45399
   49  H   0.60948
   50  H   0.60328
   51  O   1.85111   1.79751   1.59889   1.52554
   52  H   0.62729
   53  H   0.61204
   54  O   1.81750   1.50369   1.86161   1.67855
   55  H   0.58866
   56  H   0.54998
   57  H   0.80661
   58  H   0.79772


          SIGMA-PI BOND-ORDER MATRIX

                 S-SIGMA    P-SIGMA      P-PI     S-SIGMA    P-SIGMA      P-PI 
                  C  1       C  1       C  1       O  2       O  2       O  2
------------------------------------------------------------------------------
 S-SIGMA  C  1   0.951174
 P-SIGMA  C  1   0.000000   1.771866
   P-PI   C  1   0.000000   0.000000   1.015708
 S-SIGMA  O  2   0.020565   0.122883   0.000066   0.179547
 P-SIGMA  O  2   0.242272   0.534547   0.000871   0.000000   0.974211
   P-PI   O  2   0.003930   0.002475   0.418771   0.000000   0.000000   0.564144
 S-SIGMA  N  3   0.045446   0.187880   0.002956   0.000414   0.006629   0.010155
 P-SIGMA  N  3   0.213199   0.380735   0.002579   0.000010   0.014890   0.004276
   P-PI   N  3   0.004832   0.003647   0.547249   0.000958   0.000073   0.105555
 S-SIGMA  H  4   0.002816   0.002477   0.008508   0.000306   0.012684   0.001931
 S-SIGMA  C  5   0.000229   0.000880   0.000053   0.000090   0.000010   0.000678
 P-SIGMA  C  5   0.000869   0.021159   0.001540   0.000265   0.001443   0.002333
   P-PI   C  5   0.000326   0.000102   0.003217   0.000118   0.000696   0.001568
 S-SIGMA  H  6   0.000179   0.000130   0.008772   0.000001   0.000079   0.002205
 S-SIGMA  C  7   0.000121   0.000218   0.000747   0.000054   0.000229   0.000292
 P-SIGMA  C  7   0.000002   0.000049   0.000997   0.000164   0.000835   0.000183
   P-PI   C  7   0.000389   0.000757   0.001126   0.000104   0.001267   0.000602
 S-SIGMA  H  8   0.000332   0.000484   0.000167   0.000079   0.001725   0.000079
 S-SIGMA  H  9   0.000000   0.000022   0.000079   0.000000   0.000001   0.000026
 S-SIGMA  C 10   0.000001   0.000028   0.000027   0.000000   0.000024   0.000001
 P-SIGMA  C 10   0.000005   0.000059   0.000071   0.000001   0.000011   0.000004
   P-PI   C 10   0.000002   0.000009   0.000029   0.000001   0.000068   0.000012
 S-SIGMA  C 11   0.000000   0.000000   0.000004   0.000001   0.000005   0.000003
 P-SIGMA  C 11   0.000001   0.000001   0.000003   0.000001   0.000010   0.000005
   P-PI   C 11   0.000005   0.000003   0.000021   0.000003   0.000023   0.000015
 S-SIGMA  H 12   0.000000   0.000000   0.000000   0.000000   0.000001   0.000000
 S-SIGMA  C 13   0.000000   0.000000   0.000000   0.000000   0.000000   0.000000
 P-SIGMA  C 13   0.000000   0.000001   0.000001   0.000000   0.000001   0.000000
   P-PI   C 13   0.000000   0.000000   0.000001   0.000000   0.000001   0.000001
 S-SIGMA  H 14   0.000000   0.000000   0.000000   0.000000   0.000001   0.000000
 S-SIGMA  C 15   0.000000   0.000000   0.000000   0.000000   0.000000   0.000000
 P-SIGMA  C 15   0.000000   0.000000   0.000000   0.000000   0.000000   0.000000
   P-PI   C 15   0.000004   0.000000   0.000017   0.000002   0.000008   0.000024
 S-SIGMA  H 16   0.000000   0.000000   0.000000   0.000000   0.000000   0.000000
 S-SIGMA  C 17   0.000000   0.000000   0.000001   0.000002   0.000012   0.000014
 P-SIGMA  C 17   0.000000   0.000000   0.000003   0.000005   0.000018   0.000018
   P-PI   C 17   0.000008   0.000000   0.000046   0.000016   0.000048   0.000051
 S-SIGMA  H 18   0.000000   0.000001   0.000000   0.000000   0.000002   0.000001
 S-SIGMA  C 19   0.000000   0.000000   0.000000   0.000000   0.000001   0.000000
 P-SIGMA  C 19   0.000000   0.000001   0.000001   0.000000   0.000002   0.000000
   P-PI   C 19   0.000000   0.000000   0.000002   0.000000   0.000000   0.000000
 S-SIGMA  H 20   0.000000   0.000000   0.000000   0.000000   0.000000   0.000000

                  S-SIGMA    P-SIGMA      P-PI     S-SIGMA    P-SIGMA      P-PI 
                    C  1       C  1       C  1       O  2       O  2       O  2
------------------------------------------------------------------------------
 S-SIGMA  O 21   0.000000   0.000000   0.000000   0.000000   0.000000   0.000000
 P-SIGMA  O 21   0.000000   0.000000   0.000000   0.000000   0.000000   0.000000
   P-PI   O 21   0.000000   0.000000   0.000000   0.000000   0.000000   0.000000
 S-SIGMA  H 22   0.000000   0.000000   0.000000   0.000000   0.000000   0.000000
 S-SIGMA  H 23   0.000000   0.000000   0.000000   0.000000   0.000000   0.000000
 S-SIGMA  O 24   0.000000   0.000023   0.000168   0.000360   0.001604   0.000082
 P-SIGMA  O 24   0.000323   0.000009   0.003768   0.003265   0.004750   0.001101
   P-PI   O 24   0.000055   0.000001   0.000277   0.000075   0.000214   0.000047
 S-SIGMA  H 25   0.000004   0.000043   0.000015   0.000014   0.000244   0.000003
 S-SIGMA  H 26   0.000153   0.000469   0.000538   0.003687   0.026423   0.000193
 S-SIGMA  O 27   0.000000   0.000000   0.000000   0.000000   0.000000   0.000000
 P-SIGMA  O 27   0.000000   0.000000   0.000000   0.000000   0.000000   0.000000
   P-PI   O 27   0.000000   0.000000   0.000000   0.000000   0.000000   0.000000
 S-SIGMA  H 28   0.000000   0.000000   0.000000   0.000000   0.000000   0.000000
 S-SIGMA  H 29   0.000000   0.000000   0.000000   0.000000   0.000000   0.000000
 S-SIGMA  O 30   0.000008   0.000017   0.000006   0.000001   0.000013   0.000001
 P-SIGMA  O 30   0.000015   0.000014   0.000038   0.000007   0.000076   0.000003
   P-PI   O 30   0.000020   0.000001   0.000010   0.000000   0.000037   0.000006
 S-SIGMA  H 31   0.000098   0.000375   0.000003   0.000000   0.000016   0.000005
 S-SIGMA  H 32   0.000002   0.000010   0.000001   0.000000   0.000003   0.000001
 S-SIGMA  O 33   0.000039   0.000068   0.000153   0.000734   0.001861   0.000110
 P-SIGMA  O 33   0.001006   0.001298   0.001938   0.004450   0.003471   0.001042
   P-PI   O 33   0.000147   0.000175   0.000283   0.000179   0.000237   0.000055
 S-SIGMA  H 34   0.000006   0.000008   0.000029   0.000076   0.000363   0.000081
 S-SIGMA  H 35   0.000001   0.000020   0.000295   0.005919   0.027245   0.000900
 S-SIGMA  O 36   0.000000   0.000000   0.000000   0.000000   0.000000   0.000000
 P-SIGMA  O 36   0.000000   0.000000   0.000001   0.000000   0.000000   0.000000
   P-PI   O 36   0.000000   0.000000   0.000000   0.000000   0.000000   0.000000
 S-SIGMA  H 37   0.000000   0.000000   0.000000   0.000000   0.000000   0.000000
 S-SIGMA  H 38   0.000000   0.000000   0.000000   0.000000   0.000000   0.000000
 S-SIGMA  O 39   0.000003   0.000005   0.000013   0.000000   0.000000   0.000004
 P-SIGMA  O 39   0.000000   0.000001   0.000049   0.000000   0.000001   0.000003
   P-PI   O 39   0.000001   0.000019   0.000121   0.000000   0.000002   0.000050
 S-SIGMA  H 40   0.000002   0.000002   0.000007   0.000000   0.000000   0.000002
 S-SIGMA  H 41   0.000013   0.000053   0.000026   0.000000   0.000001   0.000020
 S-SIGMA  O 42   0.000000   0.000000   0.000000   0.000000   0.000000   0.000000
 P-SIGMA  O 42   0.000000   0.000000   0.000000   0.000000   0.000000   0.000000
   P-PI   O 42   0.000000   0.000000   0.000000   0.000000   0.000000   0.000000
 S-SIGMA  H 43   0.000000   0.000000   0.000000   0.000000   0.000000   0.000000
 S-SIGMA  H 44   0.000000   0.000000   0.000000   0.000000   0.000000   0.000000
 S-SIGMA  O 45   0.000000   0.000000   0.000002   0.000003   0.000014   0.000002
 P-SIGMA  O 45   0.000001   0.000000   0.000039   0.000046   0.000075   0.000022
   P-PI   O 45   0.000001   0.000001   0.000005   0.000003   0.000016   0.000054
 S-SIGMA  H 46   0.000001   0.000002   0.000001   0.000001   0.000062   0.000014
 S-SIGMA  H 47   0.000000   0.000000   0.000000   0.000000   0.000003   0.000000
 S-SIGMA  O 48   0.000000   0.000001   0.000000   0.000000   0.000000   0.000000
 P-SIGMA  O 48   0.000000   0.000000   0.000001   0.000000   0.000000   0.000000

                  S-SIGMA    P-SIGMA      P-PI     S-SIGMA    P-SIGMA      P-PI 
                    C  1       C  1       C  1       O  2       O  2       O  2
------------------------------------------------------------------------------
   P-PI   O 48   0.000000   0.000000   0.000001   0.000000   0.000000   0.000001
 S-SIGMA  H 49   0.000000   0.000000   0.000000   0.000000   0.000000   0.000000
 S-SIGMA  H 50   0.000000   0.000002   0.000000   0.000000   0.000000   0.000000
 S-SIGMA  O 51   0.000012   0.000031   0.000250   0.000621   0.003395   0.000133
 P-SIGMA  O 51   0.000129   0.000009   0.005444   0.005429   0.012409   0.001947
   P-PI   O 51   0.000033   0.000005   0.000496   0.000061   0.000511   0.000087
 S-SIGMA  H 52   0.000022   0.000090   0.000031   0.000018   0.000551   0.000015
 S-SIGMA  H 53   0.000694   0.000650   0.001027   0.007762   0.058182   0.000409
 S-SIGMA  O 54   0.000000   0.000000   0.000000   0.000000   0.000000   0.000000
 P-SIGMA  O 54   0.000000   0.000000   0.000000   0.000000   0.000000   0.000000
   P-PI   O 54   0.000000   0.000000   0.000000   0.000000   0.000000   0.000000
 S-SIGMA  H 55   0.000000   0.000000   0.000000   0.000000   0.000000   0.000000
 S-SIGMA  H 56   0.000000   0.000000   0.000000   0.000000   0.000000   0.000000
 S-SIGMA  H 57   0.410836   0.505962   0.000396   0.000714   0.013756   0.002095
 S-SIGMA  H 58   0.002014   0.003949   0.002348   0.000006   0.000186   0.000443

                 S-SIGMA    P-SIGMA      P-PI     S-SIGMA    S-SIGMA    P-SIGMA
                  N  3       N  3       N  3       H  4       C  5       C  5
------------------------------------------------------------------------------
 S-SIGMA  N  3   0.654022
 P-SIGMA  N  3   0.000000   1.858787
   P-PI   N  3   0.000000   0.000000   0.712828
 S-SIGMA  H  4   0.178971   0.576714   0.000176   0.805343
 S-SIGMA  C  5   0.027502   0.158069   0.004788   0.000636   0.979907
 P-SIGMA  C  5   0.179691   0.490117   0.007925   0.003894   0.000000   2.818076
   P-PI   C  5   0.004249   0.005010   0.028512   0.006175   0.000000   0.000000
 S-SIGMA  H  6   0.000177   0.000434   0.000673   0.000908   0.261083   0.697634
 S-SIGMA  C  7   0.000024   0.001424   0.000381   0.001290   0.046492   0.190538
 P-SIGMA  C  7   0.000071   0.001066   0.000221   0.002526   0.187283   0.532721
   P-PI   C  7   0.000890   0.000199   0.000779   0.000486   0.000613   0.004569
 S-SIGMA  H  8   0.000787   0.000463   0.000559   0.000453   0.001109   0.000867
 S-SIGMA  H  9   0.000019   0.000001   0.000039   0.000002   0.000001   0.000017
 S-SIGMA  C 10   0.000378   0.001046   0.000052   0.000163   0.000262   0.000003
 P-SIGMA  C 10   0.000763   0.001527   0.000107   0.000259   0.000226   0.000455
   P-PI   C 10   0.000081   0.000447   0.000051   0.000105   0.000096   0.000918
 S-SIGMA  C 11   0.000009   0.000026   0.000001   0.000018   0.000094   0.000112
 P-SIGMA  C 11   0.000013   0.000007   0.000001   0.000002   0.000037   0.000154
   P-PI   C 11   0.000012   0.000120   0.000011   0.000079   0.001611   0.002258
 S-SIGMA  H 12   0.000002   0.000005   0.000000   0.000001   0.000000   0.000000
 S-SIGMA  C 13   0.000003   0.000007   0.000000   0.000002   0.000003   0.000000
 P-SIGMA  C 13   0.000007   0.000018   0.000000   0.000006   0.000009   0.000002
   P-PI   C 13   0.000001   0.000002   0.000003   0.000000   0.000001   0.000010
 S-SIGMA  H 14   0.000001   0.000002   0.000000   0.000001   0.000003   0.000000
 S-SIGMA  C 15   0.000000   0.000001   0.000000   0.000000   0.000006   0.000005
 P-SIGMA  C 15   0.000000   0.000001   0.000001   0.000003   0.000047   0.000077
   P-PI   C 15   0.000001   0.000039   0.000024   0.000032   0.000745   0.001111
 S-SIGMA  H 16   0.000000   0.000000   0.000000   0.000000   0.000000   0.000001
 S-SIGMA  C 17   0.000000   0.000000   0.000004   0.000000   0.000019   0.000006
 P-SIGMA  C 17   0.000000   0.000008   0.000003   0.000013   0.000490   0.000674
   P-PI   C 17   0.000004   0.000071   0.000073   0.000058   0.001684   0.002409
 S-SIGMA  H 18   0.000003   0.000004   0.000001   0.000002   0.000000   0.000008
 S-SIGMA  C 19   0.000002   0.000005   0.000002   0.000001   0.000000   0.000001
 P-SIGMA  C 19   0.000006   0.000014   0.000004   0.000003   0.000001   0.000001
   P-PI   C 19   0.000002   0.000000   0.000001   0.000000   0.000009   0.000059
 S-SIGMA  H 20   0.000000   0.000000   0.000000   0.000000   0.000000   0.000000
 S-SIGMA  O 21   0.000000   0.000000   0.000000   0.000000   0.000000   0.000000
 P-SIGMA  O 21   0.000000   0.000000   0.000000   0.000000   0.000000   0.000000
   P-PI   O 21   0.000000   0.000000   0.000000   0.000000   0.000000   0.000000
 S-SIGMA  H 22   0.000000   0.000000   0.000000   0.000000   0.000000   0.000000
 S-SIGMA  H 23   0.000000   0.000000   0.000000   0.000000   0.000000   0.000000
 S-SIGMA  O 24   0.000004   0.000000   0.000069   0.000008   0.000000   0.000000
 P-SIGMA  O 24   0.000037   0.000007   0.000713   0.000126   0.000002   0.000000
   P-PI   O 24   0.000012   0.000005   0.000241   0.000049   0.000001   0.000000
 S-SIGMA  H 25   0.000000   0.000000   0.000008   0.000001   0.000000   0.000000
 S-SIGMA  H 26   0.000029   0.000011   0.000600   0.000037   0.000000   0.000001

                  S-SIGMA    P-SIGMA      P-PI     S-SIGMA    S-SIGMA    P-SIGMA
                    N  3       N  3       N  3       H  4       C  5       C  5
------------------------------------------------------------------------------
 S-SIGMA  O 27   0.000000   0.000000   0.000000   0.000000   0.000000   0.000000
 P-SIGMA  O 27   0.000000   0.000000   0.000000   0.000000   0.000000   0.000000
   P-PI   O 27   0.000000   0.000000   0.000000   0.000000   0.000000   0.000001
 S-SIGMA  H 28   0.000000   0.000000   0.000000   0.000000   0.000001   0.000003
 S-SIGMA  H 29   0.000000   0.000000   0.000000   0.000000   0.000000   0.000000
 S-SIGMA  O 30   0.000001   0.000019   0.000003   0.000000   0.000000   0.000000
 P-SIGMA  O 30   0.000009   0.000167   0.000032   0.000003   0.000001   0.000001
   P-PI   O 30   0.000003   0.000062   0.000019   0.000000   0.000000   0.000000
 S-SIGMA  H 31   0.000002   0.000137   0.000015   0.000015   0.000001   0.000000
 S-SIGMA  H 32   0.000000   0.000011   0.000000   0.000001   0.000000   0.000000
 S-SIGMA  O 33   0.000014   0.000056   0.000026   0.000026   0.000000   0.000000
 P-SIGMA  O 33   0.000113   0.000318   0.000210   0.000260   0.000004   0.000001
   P-PI   O 33   0.000006   0.000018   0.000015   0.000034   0.000000   0.000000
 S-SIGMA  H 34   0.000003   0.000011   0.000011   0.000007   0.000000   0.000000
 S-SIGMA  H 35   0.000078   0.000389   0.000139   0.000104   0.000001   0.000003
[...]
 PZ  N   3   0.88199    -0.00055     0.00007    -0.00019     0.00061     0.00000
  
  S  H   4  -0.00692    -0.00025     0.00008    -0.00033     0.00030    -0.00000
  
  S  C   5  -0.00667    -0.00117    -0.00001     0.00003    -0.00008    -0.00000
 PX  C   5   0.00382    -0.00037     0.00002     0.00001     0.00000     0.00000
 PY  C   5   0.01525     0.00028    -0.00001    -0.00002     0.00001     0.00000
 PZ  C   5   0.05510    -0.00101     0.00002     0.00001    -0.00003    -0.00000
  
  S  H   6  -0.03121     0.00164    -0.00001     0.00004    -0.00008    -0.00001
  
  S  C   7   0.01667    -0.00142     0.00003     0.00004    -0.00066     0.00000
 PX  C   7   0.01126     0.00371    -0.00005    -0.00018     0.00035     0.00000
 PY  C   7   0.01589    -0.00165     0.00002    -0.00003     0.00010     0.00000
 PZ  C   7   0.01135     0.00103     0.00001    -0.00002     0.00053     0.00000
  
  S  H   8   0.00126     0.00538    -0.00002    -0.00000     0.00051    -0.00000
  
  S  H   9  -0.00004     0.00078    -0.00000    -0.00001     0.00085    -0.00000
  
  S  C  10  -0.00257     0.00000    -0.00000    -0.00001     0.00010     0.00000
 PX  C  10   0.00333     0.00125     0.00000    -0.00000     0.00005    -0.00000
 PY  C  10  -0.00046    -0.00146     0.00001    -0.00001     0.00016     0.00000
 PZ  C  10   0.00348     0.00022     0.00000    -0.00001     0.00005    -0.00000
  
  S  C  11   0.00056    -0.00158     0.00001     0.00001    -0.00001     0.00000
 PX  C  11  -0.00146     0.00217    -0.00001    -0.00000    -0.00004     0.00000
 PY  C  11  -0.00050    -0.00129     0.00000     0.00002    -0.00005    -0.00000
 PZ  C  11  -0.00062    -0.00077     0.00000     0.00002    -0.00007    -0.00000
  
  S  H  12   0.00017     0.00036    -0.00000    -0.00000    -0.00002    -0.00000
  
  S  C  13  -0.00012    -0.00063     0.00000     0.00000     0.00001     0.00000
 PX  C  13  -0.00040     0.00013    -0.00000     0.00000    -0.00001     0.00000
 PY  C  13  -0.00054    -0.00039    -0.00000    -0.00000     0.00000     0.00000
 PZ  C  13  -0.00027    -0.00049     0.00000     0.00000    -0.00001     0.00000
  
  S  H  14   0.00011    -0.00040     0.00000     0.00000    -0.00001    -0.00000
  
  S  C  15  -0.00012    -0.00170     0.00000     0.00001    -0.00000     0.00000
 PX  C  15   0.00127     0.00200    -0.00000    -0.00002     0.00006     0.00000
 PY  C  15   0.00094    -0.00125     0.00001    -0.00001     0.00005     0.00000
 PZ  C  15   0.00117    -0.00148     0.00001    -0.00001     0.00005     0.00000
  
  S  H  16  -0.00001     0.00050    -0.00000    -0.00000     0.00000    -0.00000
  
  S  C  17   0.00081    -0.02012     0.00004     0.00003    -0.00004    -0.00000
 PX  C  17  -0.00272     0.01937    -0.00005    -0.00003    -0.00008    -0.00000
 PY  C  17  -0.00162    -0.01311     0.00003     0.00005    -0.00009    -0.00000
 PZ  C  17  -0.00208    -0.01422     0.00003     0.00006    -0.00006    -0.00000
  
  S  H  18  -0.00031     0.05055    -0.00005     0.00001    -0.00001    -0.00000
  
  S  C  19  -0.00023     0.00156    -0.00000    -0.00001     0.00001    -0.00000
 PX  C  19  -0.00019     0.00086    -0.00000     0.00001    -0.00003    -0.00000
 PY  C  19  -0.00055     0.00116    -0.00001    -0.00001    -0.00000    -0.00000
 PZ  C  19  -0.00013    -0.00151     0.00000     0.00000    -0.00002    -0.00000
  
  S  H  20   0.00003     0.00167    -0.00000    -0.00000    -0.00000    -0.00000
  
  S  O  21   0.00000     0.00000    -0.00000    -0.00000     0.00000     0.00000
 PX  O  21   0.00000    -0.00000    -0.00000     0.00000     0.00000    -0.00000
 PY  O  21   0.00000    -0.00000     0.00000     0.00000     0.00000     0.00000
 PZ  O  21  -0.00000    -0.00000     0.00000     0.00000     0.00000    -0.00000
  
  S  H  22   0.00000     0.00000     0.00000     0.00000     0.00000     0.00000
  
  S  H  23  -0.00000     0.00000     0.00000     0.00000    -0.00000     0.00000
  
  S  O  24  -0.00169     0.00016     0.00030     0.00035    -0.01555     0.00000
 PX  O  24  -0.00205     0.00018     0.00033     0.00040    -0.02359     0.00000
 PY  O  24  -0.00155     0.00016     0.00026     0.00036    -0.01629     0.00000
 PZ  O  24  -0.00588     0.00042     0.00045     0.00097     0.01070     0.00000
  
  S  H  25  -0.00001    -0.00011    -0.00034    -0.00025     0.06327     0.00000
  
  S  H  26   0.00689    -0.00044    -0.00125    -0.00091     0.01008     0.00000
  
  S  O  27   0.00006    -0.00001     0.00000     0.00000     0.00000     0.00000
 PX  O  27  -0.00004     0.00000    -0.00000    -0.00000     0.00002     0.00000
 PY  O  27   0.00016    -0.00003     0.00000     0.00000     0.00000     0.00000
 PZ  O  27   0.00004    -0.00001     0.00000     0.00000    -0.00001    -0.00000
  
  S  H  28  -0.00022     0.00004    -0.00000    -0.00000     0.00006    -0.00000
  
  S  H  29  -0.00004     0.00002    -0.00000    -0.00000    -0.00003     0.00000
  
  S  O  30   0.00235     0.00001     0.00002     0.00002    -0.01642    -0.00000
 PX  O  30   0.00286    -0.00000    -0.00001    -0.00001    -0.20874     0.00000
 PY  O  30   0.00326     0.00001    -0.00001    -0.00001    -0.67083    -0.00000
 PZ  O  30   0.00434     0.00003     0.00002     0.00004     0.70770     0.00000
  
  S  H  31  -0.00974    -0.00004    -0.00001    -0.00002    -0.00023    -0.00000
  
  S  H  32  -0.00255    -0.00001    -0.00003    -0.00003     0.00185    -0.00000
  
  S  O  33   0.00111     0.00331    -0.00369     0.01688    -0.00032    -0.00000
 PX  O  33   0.00278     0.00396     0.01002     0.00539    -0.00077     0.00000
 PY  O  33  -0.00002    -0.00098     0.97923    -0.00651     0.00000    -0.00000
 PZ  O  33   0.00012     0.00417     0.20247     0.03152     0.00012     0.00000
  
  S  H  34  -0.00087    -0.00680     0.00003    -0.07431     0.00030    -0.00000
  
  S  H  35  -0.00365    -0.00732     0.00006    -0.01127     0.00072    -0.00000
  
  S  O  36   0.00012    -0.00001     0.00000    -0.00000     0.00000    -0.00028
 PX  O  36  -0.00016     0.00002    -0.00000     0.00000    -0.00000     0.00049
 PY  O  36   0.00003     0.00000    -0.00000     0.00000    -0.00000     0.00002
 PZ  O  36   0.00013    -0.00001     0.00000     0.00000     0.00000    -0.00038
  
  S  H  37  -0.00044     0.00002    -0.00000     0.00000    -0.00000     0.00135
  
  S  H  38  -0.00015    -0.00000     0.00000    -0.00000    -0.00000     0.00020
  
  S  O  39   0.00190     0.00000    -0.00000     0.00001     0.00062    -0.00000
 PX  O  39   0.00161     0.00000    -0.00000     0.00001     0.00111     0.00000
 PY  O  39   0.00051     0.00000    -0.00000    -0.00000     0.00019     0.00000
 PZ  O  39   0.00257     0.00001    -0.00000     0.00001     0.00036     0.00000
  
  S  H  40  -0.00308    -0.00000     0.00000    -0.00000    -0.00209    -0.00000
  
  S  H  41  -0.00828    -0.00001     0.00001    -0.00001    -0.00172    -0.00000
  
  S  O  42   0.00003    -0.00000    -0.00000    -0.00000     0.00000    -0.00200
 PX  O  42  -0.00006     0.00000    -0.00000     0.00000    -0.00000    -0.54020
 PY  O  42   0.00002    -0.00000     0.00000     0.00000     0.00000     0.18153
 PZ  O  42  -0.00004     0.00000    -0.00000     0.00000    -0.00000     0.82172
  
  S  H  43  -0.00015    -0.00000    -0.00000     0.00000    -0.00000    -0.00006
  
  S  H  44  -0.00003    -0.00000    -0.00000     0.00000    -0.00000    -0.00000
  
  S  O  45   0.00023     0.02117     0.00021     0.01094    -0.00002     0.00000
 PX  O  45   0.00061     0.04567     0.00059     0.29344    -0.00004    -0.00000
 PY  O  45   0.00008     0.00288    -0.00009    -0.59529    -0.00002     0.00000
 PZ  O  45  -0.00030    -0.01643    -0.00030     0.74323     0.00005    -0.00000
  
  S  H  46  -0.00070    -0.10676    -0.00135     0.00211     0.00003    -0.00000
  
  S  H  47  -0.00018    -0.01129     0.00017    -0.00038     0.00002    -0.00000
  
  S  O  48   0.00058    -0.00002     0.00000     0.00000     0.00061     0.00000
 PX  O  48   0.00027    -0.00002    -0.00000    -0.00000     0.00093     0.00000
 PY  O  48   0.00061    -0.00001     0.00000     0.00000     0.00089    -0.00000
 PZ  O  48   0.00059    -0.00002     0.00000     0.00000    -0.00079    -0.00000
  
  S  H  49  -0.00046     0.00002    -0.00000    -0.00000    -0.00297    -0.00000
  
  S  H  50  -0.00208     0.00004    -0.00000    -0.00000    -0.00062    -0.00000
  
  S  O  51   0.00151     0.01572     0.00034     0.00030    -0.00012     0.00000
 PX  O  51  -0.00074     0.81162     0.00002    -0.00032    -0.00001    -0.00000
 PY  O  51   0.00355    -0.46253     0.00052     0.00069    -0.00027    -0.00000
 PZ  O  51  -0.00599    -0.32984    -0.00041    -0.00085     0.00030    -0.00000
  
  S  H  52   0.00159     0.00173    -0.00029     0.00013     0.00006    -0.00000
  
  S  H  53  -0.00682    -0.00028    -0.00151    -0.00119     0.00039    -0.00000
  
  S  O  54  -0.00000     0.00000    -0.00000     0.00000     0.00000     0.00000
 PX  O  54   0.00000    -0.00000     0.00000    -0.00000    -0.00000     0.00000
 PY  O  54   0.00000    -0.00000     0.00000    -0.00000    -0.00000    -0.00000
 PZ  O  54   0.00000    -0.00000     0.00000    -0.00000    -0.00000    -0.00000
  
  S  H  55   0.00001    -0.00000     0.00000    -0.00000    -0.00000    -0.00000
  
  S  H  56   0.00000    -0.00000     0.00000    -0.00000    -0.00000    -0.00000
  
  S  H  57  -0.00117     0.00030     0.00041     0.00010     0.00013     0.00000
  
  S  H  58   0.01089     0.00059     0.00001     0.00003     0.00005    -0.00000




    ROOT NO.   73          74          75          76          77

           -12.50869   -12.47175   -12.40934   -12.29825   -12.29470
  
  
  S  C   1  -0.00062    -0.00000     0.00058     0.00081    -0.00054
 PX  C   1   0.00059    -0.00002    -0.00006    -0.00072     0.00011
 PY  C   1   0.00064     0.00000    -0.00048    -0.00100     0.00050
 PZ  C   1  -0.00092     0.00005    -0.00163    -0.00212     0.00175
  
  S  O   2   0.00027    -0.00000    -0.00032    -0.00043     0.00027
 PX  O   2   0.00053    -0.00000    -0.00079    -0.00065     0.00061
 PY  O   2   0.00046    -0.00000    -0.00008    -0.00056     0.00013
 PZ  O   2   0.00030    -0.00002     0.00060     0.00040    -0.00052
  
  S  N   3   0.00002    -0.00000     0.00081     0.00203    -0.00075
 PX  N   3  -0.00012    -0.00000     0.00058     0.00177    -0.00061
 PY  N   3   0.00004    -0.00000    -0.00226    -0.00287     0.00168
 PZ  N   3   0.00033    -0.00002    -0.00056    -0.00010     0.00037
  
  S  H   4  -0.00010     0.00001    -0.00189    -0.00294     0.00168
  
  S  C   5   0.00006    -0.00000    -0.01126    -0.02132     0.00950
 PX  C   5  -0.00007    -0.00006     0.00767     0.01254    -0.00672
 PY  C   5   0.00006    -0.00005     0.01363     0.01837    -0.01120
 PZ  C   5  -0.00002     0.00002     0.00854     0.01215    -0.00818
  
  S  H   6  -0.00005    -0.00019    -0.00019     0.00594     0.00005
  
  S  C   7   0.00056    -0.00153     0.00319     0.00405    -0.00247
 PX  C   7  -0.00080    -0.00065    -0.00259     0.01488    -0.00085
 PY  C   7   0.00005    -0.00041     0.00334     0.02360    -0.00547
 PZ  C   7  -0.00002     0.00251    -0.00069     0.01735    -0.00254
  
  S  H   8  -0.00135     0.00002     0.01289     0.01337    -0.01023
  
  S  H   9  -0.00012     0.00412     0.00492     0.00910    -0.00505
  
  S  C  10  -0.00001    -0.00003     0.00656     0.01527    -0.00398
 PX  C  10  -0.00013     0.00017     0.16903     0.40914    -0.12484
 PY  C  10  -0.00005     0.00000     0.10523     0.26689    -0.07920
 PZ  C  10  -0.00006     0.00039     0.14874     0.36350    -0.10812
  
  S  C  11   0.00004    -0.00161    -0.06757    -0.01036     0.01089
 PX  C  11   0.00000    -0.00165     0.37836     0.09823    -0.08033
 PY  C  11   0.00006    -0.00117     0.31229     0.07340    -0.05978
 PZ  C  11   0.00007     0.00103     0.46622     0.11894    -0.09916
  
  S  H  12   0.00001     0.00369     0.01354     0.00365    -0.00614
  
  S  C  13  -0.00000     0.00020     0.01240    -0.00612     0.00999
 PX  C  13   0.00001     0.00002     0.36733    -0.10254     0.14385
 PY  C  13   0.00000     0.00035     0.30860    -0.08785     0.12055
 PZ  C  13   0.00001     0.00028     0.40700    -0.11427     0.16074
  
  S  H  14   0.00001     0.00019    -0.00335     0.00381    -0.00385
  
  S  C  15   0.00000    -0.00016    -0.00123     0.00368    -0.02337
 PX  C  15  -0.00006    -0.00000     0.11759    -0.10539     0.45518
 PY  C  15  -0.00004     0.00004     0.09148    -0.07960     0.33380
 PZ  C  15  -0.00004     0.00031     0.10006    -0.08710     0.37003
  
  S  H  16  -0.00000     0.00007     0.00105    -0.00140     0.00321
  
  S  C  17  -0.00000    -0.00022    -0.00040    -0.00243    -0.00086
 PX  C  17   0.00005    -0.00013    -0.07802     0.46673     0.11129
 PY  C  17   0.00006    -0.00017    -0.05932     0.33603     0.08164
 PZ  C  17   0.00009     0.00021    -0.05903     0.36312     0.08446
  
  S  H  18  -0.00001     0.00002     0.00013     0.00092    -0.00034
  
  S  C  19   0.00000    -0.00005    -0.00530     0.00314     0.00948
 PX  C  19   0.00002    -0.00023    -0.12898     0.19569     0.44287
 PY  C  19   0.00002    -0.00013    -0.09224     0.14120     0.32117
 PZ  C  19   0.00002    -0.00011    -0.09090     0.14121     0.32104
  
  S  H  20  -0.00000    -0.00004     0.00036    -0.00004     0.00039
  
  S  O  21   0.00000     0.00000    -0.00000    -0.00000     0.00000
 PX  O  21  -0.00000    -0.00000    -0.00000     0.00000    -0.00000
 PY  O  21  -0.00000     0.00000     0.00000    -0.00000     0.00000
 PZ  O  21   0.00000    -0.00000    -0.00000     0.00000    -0.00000
  
  S  H  22   0.00000    -0.00000     0.00000    -0.00000    -0.00000
  
  S  H  23   0.00000    -0.00001    -0.00000     0.00000    -0.00000
  
  S  O  24   0.00067     0.00001    -0.00007    -0.00011     0.00006
 PX  O  24  -0.57981     0.00002    -0.00012    -0.00014     0.00010
 PY  O  24   0.81386     0.00002    -0.00006    -0.00010     0.00006
 PZ  O  24  -0.03817    -0.00002    -0.00011    -0.00014     0.00009
  
  S  H  25   0.00002    -0.00003     0.00008     0.00020    -0.00009
  
  S  H  26   0.00003    -0.00000     0.00019     0.00047    -0.00021
  
  S  O  27   0.00001    -0.00120     0.00011    -0.00004     0.00001
 PX  O  27  -0.00001     0.13629     0.00013     0.00006    -0.00004
 PY  O  27   0.00002    -0.27413     0.00013    -0.00013     0.00008
 PZ  O  27   0.00001     0.95196    -0.00007     0.00000     0.00002
  
  S  H  28  -0.00003     0.00003    -0.00045     0.00029    -0.00006
  
  S  H  29  -0.00000    -0.00000    -0.00044    -0.00001     0.00005
  
  S  O  30   0.00015     0.00012    -0.00005    -0.00009     0.00005
 PX  O  30   0.00033     0.00030    -0.00011    -0.00015     0.00010
 PY  O  30  -0.00011    -0.00008     0.00002     0.00001    -0.00001
 PZ  O  30  -0.00001     0.00000    -0.00006    -0.00005     0.00005
  
  S  H  31  -0.00008    -0.00009     0.00008     0.00018    -0.00009
  
  S  H  32  -0.00076    -0.00056     0.00013     0.00035    -0.00016
  
  S  O  33  -0.00025    -0.00000    -0.00008    -0.00012     0.00008
 PX  O  33  -0.00035    -0.00000    -0.00022    -0.00024     0.00019
 PY  O  33   0.00003     0.00000     0.00000     0.00000    -0.00000
 PZ  O  33  -0.00012    -0.00000     0.00000    -0.00001     0.00000
  
  S  H  34   0.00042     0.00000     0.00007     0.00013    -0.00008
  
  S  H  35   0.00088     0.00000     0.00025     0.00049    -0.00027
  
  S  O  36   0.00000     0.00000    -0.00001    -0.00007    -0.00000
 PX  O  36  -0.00000    -0.00000     0.00001     0.00010     0.00001
 PY  O  36   0.00000     0.00000    -0.00002    -0.00003     0.00002
 PZ  O  36  -0.00000     0.00000     0.00001    -0.00006    -0.00002
  
  S  H  37  -0.00000    -0.00000     0.00001     0.00031     0.00004
  
  S  H  38  -0.00000    -0.00000     0.00003     0.00011    -0.00002
  
  S  O  39   0.00001     0.00003     0.00002     0.00003    -0.00002
 PX  O  39   0.00001     0.00005     0.00002     0.00003    -0.00002
 PY  O  39  -0.00001    -0.00002     0.00002     0.00003    -0.00002
 PZ  O  39   0.00000    -0.00001     0.00007     0.00010    -0.00006
  
  S  H  40  -0.00002    -0.00008    -0.00001    -0.00001     0.00001
  
  S  H  41  -0.00002    -0.00003    -0.00008    -0.00018     0.00009
  
  S  O  42   0.00000     0.00000    -0.00000    -0.00001     0.00000
 PX  O  42  -0.00000    -0.00000     0.00001     0.00002    -0.00000
 PY  O  42   0.00000     0.00000    -0.00000    -0.00001     0.00000
 PZ  O  42  -0.00000    -0.00000     0.00000     0.00001    -0.00000
  
  S  H  43  -0.00000    -0.00000     0.00001     0.00005    -0.00000
  
  S  H  44  -0.00000    -0.00000     0.00000     0.00001    -0.00000
  
  S  O  45  -0.00001    -0.00000    -0.00003    -0.00004     0.00003
 PX  O  45   0.00001    -0.00000    -0.00007    -0.00010     0.00008
 PY  O  45  -0.00002    -0.00000    -0.00001    -0.00001     0.00001
 PZ  O  45   0.00001     0.00000     0.00003     0.00004    -0.00003
  
  S  H  46  -0.00001     0.00000     0.00009     0.00013    -0.00011
  
  S  H  47   0.00002     0.00000     0.00002     0.00003    -0.00002
  
  S  O  48   0.00004     0.00060    -0.00008    -0.00015     0.00008
 PX  O  48  -0.00005     0.00043    -0.00005    -0.00013     0.00006
 PY  O  48   0.00003     0.00080    -0.00006    -0.00014     0.00006
 PZ  O  48   0.00002    -0.00044    -0.00010    -0.00009     0.00007
  
  S  H  49  -0.00002    -0.00212     0.00013     0.00033    -0.00017
  
  S  H  50  -0.00003    -0.00077     0.00017     0.00050    -0.00022
  
  S  O  51   0.00010    -0.00001    -0.00017    -0.00041     0.00018
 PX  O  51   0.00003    -0.00001    -0.00001    -0.00030     0.00001
 PY  O  51   0.00015    -0.00001    -0.00034    -0.00049     0.00020
 PZ  O  51  -0.00018     0.00001     0.00054     0.00035    -0.00054
  
  S  H  52  -0.00004     0.00001     0.00010     0.00126    -0.00018
  
  S  H  53  -0.00051     0.00002     0.00066     0.00115    -0.00072
  
  S  O  54   0.00000     0.00000     0.00000     0.00000    -0.00000
 PX  O  54  -0.00000    -0.00000    -0.00000    -0.00000     0.00000
 PY  O  54  -0.00000     0.00000    -0.00000    -0.00000     0.00000
 PZ  O  54  -0.00000     0.00000    -0.00000    -0.00000     0.00000
  
  S  H  55  -0.00000    -0.00000    -0.00000    -0.00000     0.00000
  
  S  H  56  -0.00000    -0.00000    -0.00000    -0.00000     0.00000
  
  S  H  57   0.00018    -0.00000     0.00014     0.00028    -0.00010
  
  S  H  58   0.00007     0.00016     0.00197     0.00122    -0.00092

          BONDING CONTRIBUTION OF EACH M.O.

  1.8237  1.5145  1.8805  1.8591  0.0974  1.6876  1.6748  1.6612  1.9993  1.7113
  1.7214  1.9932  1.6297  1.6525  0.0457  1.9976  0.0673  1.6384  0.0141  1.5938
  1.9947  1.9960  1.7369  1.6496  0.0000  0.0102  1.6581  0.0190  1.5878  1.8938
  1.7162  1.7105  1.9915  1.6886  1.7135  0.0011  0.0040  0.0013  1.6133  0.0000
  1.5829  1.6447  1.6773  0.0014  1.5887  1.9887  1.6052  1.5785  0.0018  1.9559
  1.9975  1.9438  1.9290  1.9268  1.9438  1.9676  1.9048  1.9404  1.9385  0.9215
  0.1599  0.1674  0.3041  0.0000  0.0000  0.0100  1.2011  0.1146  0.0001  0.0448
  0.0336  0.0000  0.0000  0.0003  1.9951  2.0219  1.9544 -2.0122 -1.9983 -1.9843
 -1.8746 -2.0016 -1.8020 -1.8173 -1.9591 -1.9430 -1.8895 -1.7781 -1.7571 -1.6173
 -1.8235 -1.9555 -1.9597 -1.7881 -1.6349 -1.8018 -1.9014 -1.8250 -1.8073 -1.9376
 -1.9095 -1.7708 -1.9673 -1.9118 -1.7173 -1.8553 -1.9724 -1.9185 -1.7393 -1.8613
 -1.9506 -1.9348 -1.9020 -1.9421 -1.7177 -1.8636 -1.6041 -1.6472 -1.5840 -1.7356
 -1.7088 -1.6204 -1.7456 -1.7122 -1.7051 -1.7018 -1.7269

           DATA FOR GRAPH WRITTEN TO DISK

 **********************
 *                    *
 * JOB ENDED NORMALLY *
 *                    *
 **********************



 TOTAL JOB TIME:             1.49 SECONDS

 == MOPAC DONE ==
