 *******************************************************************************
 ** Site#: 34139        For non-commercial use only    Version 20.070L 64BITS **
 *******************************************************************************
 ** Cite this program as: MOPAC2016, Version: 20.070L, James J. P. Stewart,   **
 ** Stewart Computational Chemistry, web: HTTP://OpenMOPAC.net. Days left: 322**
 *******************************************************************************
 **                                                                           **
 **                                MOPAC2016                                  **
 **                                                                           **
 *******************************************************************************

                              PM7 CALCULATION RESULTS

 *******************************************************************************
 *  CALCULATION DONE:                                Thu Apr 23 14:33:14 2020  *
 *  PM7        - The PM7 Hamiltonian to be used
 *  QMMM       - Generate energies and gradients for use in MM codes
 *  DIPOLE     - PRINT DIPOLE INSTEAD OF ENERGY IN TRAJECTORIES
 *  GEO-OK     - OVERRIDE INTERATOMIC DISTANCE AND OTHER SAFETY CHECKS
 *
 *
 *
 *                 CHARGE ON SYSTEM = 0
 *
 *
 *
 *  LET        - OVERRIDE SOME SAFETY CHECKS
 *  XYZ        - CARTESIAN COORDINATE SYSTEM TO BE USED
 *  FORCE      - FORCE CALCULATION SPECIFIED
 *  1SCF       - DO 1 SCF AND THEN STOP 
 *  T=         - A TIME OF      2.0 MINUTES REQUESTED
 *  DUMP=N     - RESTART FILE WRITTEN EVERY  7200.000 SECONDS
 *  CUTOFF=    - CUTOFF FOR NDDO AND DIPOLE INTERACTIONS =  9.00A
 *  AUX        - OUTPUT AUXILIARY INFORMATION
 *  GRADIENTS  - ALL GRADIENTS TO BE PRINTED
 *  VECTORS    - FINAL EIGENVECTORS TO BE PRINTED
 *  EIGEN      - CONVERT LMO's INTO EIGENVECTORS
 *  LARGE      - EXPANDED OUTPUT TO BE PRINTED
 *  AIGOUT     - IN ARC FILE, INCLUDE AB-INITIO GEOMETRY
 *  GRAPH      - GENERATE FILE FOR GRAPHICS
 *  LOCALIZE   - LOCALIZED ORBITALS TO BE PRINTED
 *  PI         - BONDS MATRIX, SPLIT INTO SIGMA-PI-DELL COMPONENTS, TO BE PRINTED
 *******************************************************************************
PM7 XYZ T=2M 1SCF LOCALIZE AIGOUT GRAPH GRAPHF LARGE DIPOLE PI FORCE CUTOFF=9.0 AUX LET GRAD QMMM GEO-OK EIGEN VECTORS CHARGE=0
 Test System

   ATOM   CHEMICAL          X               Y               Z
  NUMBER   SYMBOL      (ANGSTROMS)     (ANGSTROMS)     (ANGSTROMS)
 
     1       C          3.63665700  *   0.56479900  *   0.68784000  *
     2       O          3.41690600  *  -0.21343500  *   1.64170100  *
     3       N          4.84875000  *   0.62983100  *   0.01179000  *
     4       H          4.98333900  *   1.16880400  *  -0.86788500  *
     5       C          6.00636500  *  -0.04254800  *   0.52993600  *
     6       H          5.96119900  *  -0.17058900  *   1.59517300  *
     7       C          6.18155200  *  -1.44743200  *  -0.13658200  *
     8       H          5.27260200  *  -1.73624100  *  -0.68763800  *
     9       H          6.93261400  *  -1.51402300  *  -0.95512100  *
    10       C          6.48856400  *  -2.43277800  *   0.88950800  *
    11       C          5.54738800  *  -3.10321700  *   1.60109300  *
    12       H          4.44799700  *  -2.93146200  *   1.51389400  *
    13       C          5.92699900  *  -4.12189800  *   2.51599300  *
    14       H          5.09449000  *  -4.57993200  *   3.05237500  *
    15       C          7.26782400  *  -4.39630000  *   2.58489000  *
    16       H          7.70578900  *  -5.14034000  *   3.29187500  *
    17       C          7.85933700  *  -2.63006400  *   1.06102800  *
    18       H          8.53282200  *  -2.12648300  *   0.46388500  *
    19       C          8.22909700  *  -3.76865800  *   1.76218600  *
    20       H          9.24382800  *  -4.12524300  *   1.84680100  *
    21       O          6.36405600  *   3.65736600  *  -2.06719100  *
    22       H          5.57895300  *   3.73625700  *  -1.47602200  *
    23       H          7.05244600  *   3.39953100  *  -1.39362700  *
    24       O          3.31532500  *  -2.76997100  *   3.27773600  *
    25       H          2.51551600  *  -2.49456700  *   3.76952900  *
    26       H          3.61422400  *  -2.04171200  *   2.74035700  *
    27       O         11.53154200  *  -2.11653500  *  -0.07376300  *
    28       H         12.26493000  *  -1.83774200  *  -0.66723600  *
    29       H         11.19530200  *  -1.34182700  *   0.41277000  *
    30       O          9.43072600  *  -1.31533200  *   3.54476000  *
    31       H          9.53934000  *  -2.24410800  *   3.43925400  *
    32       H          9.93234200  *  -0.82717000  *   2.73901000  *
    33       O         11.24221400  *  -4.74228300  *   0.88097300  *
    34       H         11.45093900  *  -3.83340100  *   0.51652100  *
    35       H         10.53099200  *  -5.14775900  *   0.23739500  *
    36       O          9.51527900  *  -3.04010500  *  -1.72415300  *
    37       H         10.22234100  *  -2.62251300  *  -1.12753900  *
    38       H          9.29927000  *  -2.32774900  *  -2.36685900  *
    39       O          4.63173300  *  -0.80157100  *  -3.39069800  *
    40       H          4.91934400  *  -0.05921700  *  -2.78852700  *
    41       H          4.03693900  *  -0.24590500  *  -3.95416700  *
    42       O          6.62754800  *  -6.00252300  *  -0.15296000  *
    43       H          7.51650800  *  -5.93089500  *  -0.52062000  *
    44       H          6.59531300  *  -5.07270400  *   0.26867100  *
    45       O          7.20837900  *  -0.05762500  *   3.73436100  *
    46       H          8.03908700  *  -0.44629300  *   3.49513300  *
    47       H          6.74053800  *  -0.72264100  *   4.30484000  *
    48       O          4.31528000  *   0.96953100  *   4.00091200  *
    49       H          4.27429400  *   1.95493100  *   3.71033800  *
    50       H          4.81255200  *   0.67498600  *   3.23259900  *
    51       O          6.38123500  *  -2.84595400  *  -3.24159400  *
    52       H          7.21333200  *  -2.19014400  *  -3.25961300  *
    53       H          5.71364600  *  -2.16614600  *  -3.41908500  *
    54       O          4.60347900  *   1.87695700  *  -2.94037900  *
    55       H          5.27442900  *   2.31825000  *  -3.45726900  *
    56       H          4.26053100  *   2.60070400  *  -2.28427900  *
    57       O          2.02928500  *  -0.26523100  *   3.99038700  *
    58       H          2.69409700  *   0.15361000  *   3.36167700  *
    59       H          2.63829700  *  -0.53097600  *   4.73283100  *
    60       O         11.00034700  *  -3.36798400  *   3.26784000  *
    61       H         11.92804400  *  -2.91432800  *   3.39196000  *
    62       H         11.19253600  *  -4.00867100  *   2.58380600  *
    63       O          3.94934000  *  -5.33837300  *   4.96536100  *
    64       H          3.73487700  *  -4.63863400  *   4.32692400  *
    65       H          4.87340400  *  -5.07742400  *   5.43109800  *
    66       O          7.98462900  *  -6.07083500  *   5.47434300  *
    67       H          8.05852900  *  -5.14632800  *   5.23995300  *
    68       H          7.57822500  *  -6.08660800  *   6.42131300  *
    69       H          2.83506500  *   1.21057300  *   0.32933400  *
    70       H          6.89485200  *   0.55112900  *   0.31490300  *
 


          CARTESIAN COORDINATES 

    NO.       ATOM           X           Y           Z

     1         C          3.6367      0.5648      0.6878
     2         O          3.4169     -0.2134      1.6417
     3         N          4.8487      0.6298      0.0118
     4         H          4.9833      1.1688     -0.8679
     5         C          6.0064     -0.0425      0.5299
     6         H          5.9612     -0.1706      1.5952
     7         C          6.1816     -1.4474     -0.1366
     8         H          5.2726     -1.7362     -0.6876
     9         H          6.9326     -1.5140     -0.9551
    10         C          6.4886     -2.4328      0.8895
    11         C          5.5474     -3.1032      1.6011
    12         H          4.4480     -2.9315      1.5139
    13         C          5.9270     -4.1219      2.5160
    14         H          5.0945     -4.5799      3.0524
    15         C          7.2678     -4.3963      2.5849
    16         H          7.7058     -5.1403      3.2919
    17         C          7.8593     -2.6301      1.0610
    18         H          8.5328     -2.1265      0.4639
    19         C          8.2291     -3.7687      1.7622
    20         H          9.2438     -4.1252      1.8468
    21         O          6.3641      3.6574     -2.0672
    22         H          5.5790      3.7363     -1.4760
    23         H          7.0524      3.3995     -1.3936
    24         O          3.3153     -2.7700      3.2777
    25         H          2.5155     -2.4946      3.7695
    26         H          3.6142     -2.0417      2.7404
    27         O         11.5315     -2.1165     -0.0738
    28         H         12.2649     -1.8377     -0.6672
    29         H         11.1953     -1.3418      0.4128
    30         O          9.4307     -1.3153      3.5448
    31         H          9.5393     -2.2441      3.4393
    32         H          9.9323     -0.8272      2.7390
    33         O         11.2422     -4.7423      0.8810
    34         H         11.4509     -3.8334      0.5165
    35         H         10.5310     -5.1478      0.2374
    36         O          9.5153     -3.0401     -1.7242
    37         H         10.2223     -2.6225     -1.1275
    38         H          9.2993     -2.3277     -2.3669
    39         O          4.6317     -0.8016     -3.3907
    40         H          4.9193     -0.0592     -2.7885
    41         H          4.0369     -0.2459     -3.9542
    42         O          6.6275     -6.0025     -0.1530
    43         H          7.5165     -5.9309     -0.5206
    44         H          6.5953     -5.0727      0.2687
    45         O          7.2084     -0.0576      3.7344
    46         H          8.0391     -0.4463      3.4951
    47         H          6.7405     -0.7226      4.3048
    48         O          4.3153      0.9695      4.0009
    49         H          4.2743      1.9549      3.7103
    50         H          4.8126      0.6750      3.2326
    51         O          6.3812     -2.8460     -3.2416
    52         H          7.2133     -2.1901     -3.2596
    53         H          5.7136     -2.1661     -3.4191
    54         O          4.6035      1.8770     -2.9404
    55         H          5.2744      2.3182     -3.4573
    56         H          4.2605      2.6007     -2.2843
    57         O          2.0293     -0.2652      3.9904
    58         H          2.6941      0.1536      3.3617
    59         H          2.6383     -0.5310      4.7328
    60         O         11.0003     -3.3680      3.2678
    61         H         11.9280     -2.9143      3.3920
    62         H         11.1925     -4.0087      2.5838
    63         O          3.9493     -5.3384      4.9654
    64         H          3.7349     -4.6386      4.3269
    65         H          4.8734     -5.0774      5.4311
    66         O          7.9846     -6.0708      5.4743
    67         H          8.0585     -5.1463      5.2400
    68         H          7.5782     -6.0866      6.4213
    69         H          2.8351      1.2106      0.3293
    70         H          6.8949      0.5511      0.3149

 General Reference for PM7:
 "Optimization of Parameters for Semiempirical Methods VI: More Modifications to the 
 NDDO Approximations and Re-optimization of Parameters", J. J. P. Stewart, J. Mol. Mod., 1:32, 19 (2013)
 http://www.springerlink.com/openurl.asp?genre=article&id=doi:10.1007/s00894-012-1667-x

           Empirical Formula: C9 H43 N O17  =    70 atoms



      MOLECULAR POINT GROUP   :   C1  


      RHF CALCULATION, NO. OF DOUBLY OCCUPIED LEVELS = 93


 -------------------------------------------------------------------------------
 PM7 XYZ T=2M 1SCF LOCALIZE AIGOUT GRAPH GRAPHF LARGE DIPOLE PI FORCE CUTOFF=9.0 AUX LET GRAD QMMM GEO-OK EIGEN VECTORS CHARGE=0
 Test System



     1SCF WAS SPECIFIED, SO BFGS WAS NOT USED                 
     SCF FIELD WAS ACHIEVED                                   


                              PM7 CALCULATION
                                                       MOPAC2016 (Version: 20.070L)
                                                       Thu Apr 23 14:33:14 2020
                                                       No. of days remaining = 322




          FINAL HEAT OF FORMATION =      -1272.56700 KCAL/MOL =   -5324.42034 KJ/MOL


          TOTAL ENERGY            =      -6909.90096 EV
          ELECTRONIC ENERGY       =     -55844.50500 EV  POINT GROUP:     C1  
          CORE-CORE REPULSION     =      48934.60404 EV
          COSMO AREA              =        486.37 SQUARE ANGSTROMS
          COSMO VOLUME            =        631.25 CUBIC ANGSTROMS

          GRADIENT NORM           =        299.37467 = 35.78212 PER ATOM
          IONIZATION POTENTIAL    =         10.374283 EV
          HOMO LUMO ENERGIES (EV) =        -10.374 -0.985
          NO. OF FILLED LEVELS    =         93
          MOLECULAR WEIGHT        =        437.4352

          MOLECULAR DIMENSIONS (Angstroms)

            Atom       Atom       Distance
            H    68    H    55    13.17329
            O    57    H    28    11.33338
            H    49    O    42     7.23168


          SCF CALCULATIONS        =          1
 
          WALL-CLOCK TIME         =          0.184 SECONDS
          COMPUTATION TIME        =          0.179 SECONDS

          LARGEST ATOMIC GRADIENTS

          Atom     Label                     Cartesian Gradients           Cartesian Coordinates       |Gradient|
                                           X          Y          Z        X          Y          Z

            51       O                 -43.091    -59.835      6.228    6.38124   -2.84595   -3.24159     73.999
            30       O                 -27.027    -39.416     45.443    9.43073   -1.31533    3.54476     65.948
            65       H                  54.800     13.412     32.742    4.87340   -5.07742    5.43110     65.230
            17       C                  -1.961     61.936     -5.731    7.85934   -2.63006    1.06103     62.232
            32       H                  24.745     30.323    -44.944    9.93234   -0.82717    2.73901     59.597
             2       O                 -26.733    -39.840     35.220    3.41691   -0.21344    1.64170     59.517
            52       H                  38.473     45.166     -1.310    7.21333   -2.19014   -3.25961     59.345
            36       O                 -32.481    -45.383    -18.486    9.51528   -3.04011   -1.72415     58.791
            63       O                 -48.401    -18.825    -24.967    3.94934   -5.33837    4.96536     57.623
            60       O                 -51.723    -19.196      6.693   11.00035   -3.36798    3.26784     55.575
            48       O                  -4.448    -45.905     24.830    4.31528    0.96953    4.00091     52.379
            66       O                  21.102     -2.604    -46.125    7.98463   -6.07083    5.47434     50.790
            11       C                  32.126     28.195    -23.013    5.54739   -3.10322    1.60109     48.545



       FINAL  POINT  AND  DERIVATIVES

   PARAMETER     ATOM    TYPE            VALUE        GRADIENT
      1          1  C    CARTESIAN X     3.636657    -11.578067  KCAL/ANGSTROM
      2          1  C    CARTESIAN Y     0.564799     35.330983  KCAL/ANGSTROM
      3          1  C    CARTESIAN Z     0.687840     -7.063927  KCAL/ANGSTROM
      4          2  O    CARTESIAN X     3.416906    -26.732518  KCAL/ANGSTROM
      5          2  O    CARTESIAN Y    -0.213435    -39.839552  KCAL/ANGSTROM
      6          2  O    CARTESIAN Z     1.641701     35.219731  KCAL/ANGSTROM
      7          3  N    CARTESIAN X     4.848750     40.645960  KCAL/ANGSTROM
      8          3  N    CARTESIAN Y     0.629831    -20.732356  KCAL/ANGSTROM
      9          3  N    CARTESIAN Z     0.011790    -11.031320  KCAL/ANGSTROM
     10          4  H    CARTESIAN X     4.983339      8.958232  KCAL/ANGSTROM
     11          4  H    CARTESIAN Y     1.168804     11.832117  KCAL/ANGSTROM
     12          4  H    CARTESIAN Z    -0.867885    -12.223092  KCAL/ANGSTROM
     13          5  C    CARTESIAN X     6.006365    -12.995477  KCAL/ANGSTROM
     14          5  C    CARTESIAN Y    -0.042548     24.532472  KCAL/ANGSTROM
     15          5  C    CARTESIAN Z     0.529936     27.284669  KCAL/ANGSTROM
     16          6  H    CARTESIAN X     5.961199      2.916946  KCAL/ANGSTROM
     17          6  H    CARTESIAN Y    -0.170589      2.279829  KCAL/ANGSTROM
     18          6  H    CARTESIAN Z     1.595173    -26.342246  KCAL/ANGSTROM
     19          7  C    CARTESIAN X     6.181552     18.371341  KCAL/ANGSTROM
     20          7  C    CARTESIAN Y    -1.447432    -25.826546  KCAL/ANGSTROM
     21          7  C    CARTESIAN Z    -0.136582     24.005115  KCAL/ANGSTROM
     22          8  H    CARTESIAN X     5.272602     11.189385  KCAL/ANGSTROM
     23          8  H    CARTESIAN Y    -1.736241      1.175539  KCAL/ANGSTROM
     24          8  H    CARTESIAN Z    -0.687638      2.775749  KCAL/ANGSTROM
     25          9  H    CARTESIAN X     6.932614      0.453858  KCAL/ANGSTROM
     26          9  H    CARTESIAN Y    -1.514023     -9.720266  KCAL/ANGSTROM
     27          9  H    CARTESIAN Z    -0.955121     -0.624152  KCAL/ANGSTROM
     28         10  C    CARTESIAN X     6.488564     -9.113938  KCAL/ANGSTROM
     29         10  C    CARTESIAN Y    -2.432778    -15.306816  KCAL/ANGSTROM
     30         10  C    CARTESIAN Z     0.889508     -2.306080  KCAL/ANGSTROM
     31         11  C    CARTESIAN X     5.547388     32.125988  KCAL/ANGSTROM
     32         11  C    CARTESIAN Y    -3.103217     28.194976  KCAL/ANGSTROM
     33         11  C    CARTESIAN Z     1.601093    -23.013459  KCAL/ANGSTROM
     34         12  H    CARTESIAN X     4.447997    -14.716203  KCAL/ANGSTROM
     35         12  H    CARTESIAN Y    -2.931462     -1.144599  KCAL/ANGSTROM
     36         12  H    CARTESIAN Z     1.513894      8.902717  KCAL/ANGSTROM
     37         13  C    CARTESIAN X     5.926999      8.297460  KCAL/ANGSTROM
     38         13  C    CARTESIAN Y    -4.121898    -26.437697  KCAL/ANGSTROM
     39         13  C    CARTESIAN Z     2.515993     16.644462  KCAL/ANGSTROM
     40         14  H    CARTESIAN X     5.094490    -12.352581  KCAL/ANGSTROM
     41         14  H    CARTESIAN Y    -4.579932      7.252289  KCAL/ANGSTROM
     42         14  H    CARTESIAN Z     3.052375     -4.231724  KCAL/ANGSTROM
     43         15  C    CARTESIAN X     7.267824    -23.834723  KCAL/ANGSTROM
     44         15  C    CARTESIAN Y    -4.396300     25.479756  KCAL/ANGSTROM
     45         15  C    CARTESIAN Z     2.584890    -13.411772  KCAL/ANGSTROM
     46         16  H    CARTESIAN X     7.705789     15.480218  KCAL/ANGSTROM
     47         16  H    CARTESIAN Y    -5.140340     -1.427611  KCAL/ANGSTROM
     48         16  H    CARTESIAN Z     3.291875      8.019737  KCAL/ANGSTROM
     49         17  C    CARTESIAN X     7.859337     -1.961248  KCAL/ANGSTROM
     50         17  C    CARTESIAN Y    -2.630064     61.936306  KCAL/ANGSTROM
     51         17  C    CARTESIAN Z     1.061028     -5.730814  KCAL/ANGSTROM
     52         18  H    CARTESIAN X     8.532822    -27.220819  KCAL/ANGSTROM
     53         18  H    CARTESIAN Y    -2.126483    -21.293898  KCAL/ANGSTROM
     54         18  H    CARTESIAN Z     0.463885     14.335115  KCAL/ANGSTROM
     55         19  C    CARTESIAN X     8.229097      9.551681  KCAL/ANGSTROM
     56         19  C    CARTESIAN Y    -3.768658    -19.604295  KCAL/ANGSTROM
     57         19  C    CARTESIAN Z     1.762186    -27.003438  KCAL/ANGSTROM
     58         20  H    CARTESIAN X     9.243828     -7.191378  KCAL/ANGSTROM
     59         20  H    CARTESIAN Y    -4.125243      0.219169  KCAL/ANGSTROM
     60         20  H    CARTESIAN Z     1.846801      3.463420  KCAL/ANGSTROM
     61         21  O    CARTESIAN X     6.364056      0.387922  KCAL/ANGSTROM
     62         21  O    CARTESIAN Y     3.657366     14.281828  KCAL/ANGSTROM
     63         21  O    CARTESIAN Z    -2.067191    -36.880177  KCAL/ANGSTROM
     64         22  H    CARTESIAN X     5.578953     -7.682534  KCAL/ANGSTROM
     65         22  H    CARTESIAN Y     3.736257     -9.532889  KCAL/ANGSTROM
     66         22  H    CARTESIAN Z    -1.476022      9.880968  KCAL/ANGSTROM
     67         23  H    CARTESIAN X     7.052446      5.732750  KCAL/ANGSTROM
     68         23  H    CARTESIAN Y     3.399531     -8.034103  KCAL/ANGSTROM
     69         23  H    CARTESIAN Z    -1.393627     22.691469  KCAL/ANGSTROM
     70         24  O    CARTESIAN X     3.315325      9.391741  KCAL/ANGSTROM
     71         24  O    CARTESIAN Y    -2.769971      6.283774  KCAL/ANGSTROM
     72         24  O    CARTESIAN Z     3.277736    -16.268826  KCAL/ANGSTROM
     73         25  H    CARTESIAN X     2.515516     -7.601717  KCAL/ANGSTROM
     74         25  H    CARTESIAN Y    -2.494567     -3.125779  KCAL/ANGSTROM
     75         25  H    CARTESIAN Z     3.769529     11.516490  KCAL/ANGSTROM
     76         26  H    CARTESIAN X     3.614224      4.924433  KCAL/ANGSTROM
     77         26  H    CARTESIAN Y    -2.041712     -7.362806  KCAL/ANGSTROM
     78         26  H    CARTESIAN Z     2.740357     -0.195721  KCAL/ANGSTROM
     79         27  O    CARTESIAN X    11.531542      9.331229  KCAL/ANGSTROM
     80         27  O    CARTESIAN Y    -2.116535     -1.387204  KCAL/ANGSTROM
     81         27  O    CARTESIAN Z    -0.073763     18.094130  KCAL/ANGSTROM
     82         28  H    CARTESIAN X    12.264930      9.720829  KCAL/ANGSTROM
     83         28  H    CARTESIAN Y    -1.837742      5.077233  KCAL/ANGSTROM
     84         28  H    CARTESIAN Z    -0.667236    -11.124634  KCAL/ANGSTROM
     85         29  H    CARTESIAN X    11.195302     -6.966771  KCAL/ANGSTROM
     86         29  H    CARTESIAN Y    -1.341827      7.454566  KCAL/ANGSTROM
     87         29  H    CARTESIAN Z     0.412770      1.603103  KCAL/ANGSTROM
     88         30  O    CARTESIAN X     9.430726    -27.026925  KCAL/ANGSTROM
     89         30  O    CARTESIAN Y    -1.315332    -39.416405  KCAL/ANGSTROM
     90         30  O    CARTESIAN Z     3.544760     45.443164  KCAL/ANGSTROM
     91         31  H    CARTESIAN X     9.539340     -3.890523  KCAL/ANGSTROM
     92         31  H    CARTESIAN Y    -2.244108      7.590123  KCAL/ANGSTROM
     93         31  H    CARTESIAN Z     3.439254     -0.474084  KCAL/ANGSTROM
     94         32  H    CARTESIAN X     9.932342     24.744697  KCAL/ANGSTROM
     95         32  H    CARTESIAN Y    -0.827170     30.323373  KCAL/ANGSTROM
     96         32  H    CARTESIAN Z     2.739010    -44.943868  KCAL/ANGSTROM
     97         33  O    CARTESIAN X    11.242214     20.480730  KCAL/ANGSTROM
     98         33  O    CARTESIAN Y    -4.742283    -22.517354  KCAL/ANGSTROM
     99         33  O    CARTESIAN Z     0.880973     26.887036  KCAL/ANGSTROM
    100         34  H    CARTESIAN X    11.450939      6.772896  KCAL/ANGSTROM
    101         34  H    CARTESIAN Y    -3.833401     23.821964  KCAL/ANGSTROM
    102         34  H    CARTESIAN Z     0.516521     -4.763574  KCAL/ANGSTROM
    103         35  H    CARTESIAN X    10.530992    -29.427189  KCAL/ANGSTROM
    104         35  H    CARTESIAN Y    -5.147759    -17.184318  KCAL/ANGSTROM
    105         35  H    CARTESIAN Z     0.237395    -27.609473  KCAL/ANGSTROM
    106         36  O    CARTESIAN X     9.515279    -32.481290  KCAL/ANGSTROM
    107         36  O    CARTESIAN Y    -3.040105    -45.382625  KCAL/ANGSTROM
    108         36  O    CARTESIAN Z    -1.724153    -18.486198  KCAL/ANGSTROM
    109         37  H    CARTESIAN X    10.222341     16.632913  KCAL/ANGSTROM
    110         37  H    CARTESIAN Y    -2.622513     21.456230  KCAL/ANGSTROM
    111         37  H    CARTESIAN Z    -1.127539     13.397835  KCAL/ANGSTROM
    112         38  H    CARTESIAN X     9.299270      0.156061  KCAL/ANGSTROM
    113         38  H    CARTESIAN Y    -2.327749     20.771837  KCAL/ANGSTROM
    114         38  H    CARTESIAN Z    -2.366859     -7.205570  KCAL/ANGSTROM
    115         39  O    CARTESIAN X     4.631733      0.092207  KCAL/ANGSTROM
    116         39  O    CARTESIAN Y    -0.801571    -40.108881  KCAL/ANGSTROM
    117         39  O    CARTESIAN Z    -3.390698     -9.015994  KCAL/ANGSTROM
    118         40  H    CARTESIAN X     4.919344      3.197197  KCAL/ANGSTROM
    119         40  H    CARTESIAN Y    -0.059217     20.387472  KCAL/ANGSTROM
    120         40  H    CARTESIAN Z    -2.788527      7.834248  KCAL/ANGSTROM
    121         41  H    CARTESIAN X     4.036939     -4.384347  KCAL/ANGSTROM
    122         41  H    CARTESIAN Y    -0.245905     17.164930  KCAL/ANGSTROM
    123         41  H    CARTESIAN Z    -3.954167      1.768881  KCAL/ANGSTROM
    124         42  O    CARTESIAN X     6.627548    -15.238221  KCAL/ANGSTROM
    125         42  O    CARTESIAN Y    -6.002523    -40.275523  KCAL/ANGSTROM
    126         42  O    CARTESIAN Z    -0.152960    -11.861630  KCAL/ANGSTROM
    127         43  H    CARTESIAN X     7.516508      3.033288  KCAL/ANGSTROM
    128         43  H    CARTESIAN Y    -5.930895     10.479013  KCAL/ANGSTROM
    129         43  H    CARTESIAN Z    -0.520620      5.442209  KCAL/ANGSTROM
    130         44  H    CARTESIAN X     6.595313     13.824121  KCAL/ANGSTROM
    131         44  H    CARTESIAN Y    -5.072704     30.570200  KCAL/ANGSTROM
    132         44  H    CARTESIAN Z     0.268671      7.750893  KCAL/ANGSTROM
    133         45  O    CARTESIAN X     7.208379     27.659739  KCAL/ANGSTROM
    134         45  O    CARTESIAN Y    -0.057625      1.075856  KCAL/ANGSTROM
    135         45  O    CARTESIAN Z     3.734361     -3.973435  KCAL/ANGSTROM
    136         46  H    CARTESIAN X     8.039087     -5.631808  KCAL/ANGSTROM
    137         46  H    CARTESIAN Y    -0.446293      9.657433  KCAL/ANGSTROM
    138         46  H    CARTESIAN Z     3.495133     -7.092086  KCAL/ANGSTROM
    139         47  H    CARTESIAN X     6.740538    -10.333933  KCAL/ANGSTROM
    140         47  H    CARTESIAN Y    -0.722641    -14.776246  KCAL/ANGSTROM
    141         47  H    CARTESIAN Z     4.304840     11.806894  KCAL/ANGSTROM
    142         48  O    CARTESIAN X     4.315280     -4.448186  KCAL/ANGSTROM
    143         48  O    CARTESIAN Y     0.969531    -45.904679  KCAL/ANGSTROM
    144         48  O    CARTESIAN Z     4.000912     24.829582  KCAL/ANGSTROM
    145         49  H    CARTESIAN X     4.274294      5.994949  KCAL/ANGSTROM
    146         49  H    CARTESIAN Y     1.954931     29.178074  KCAL/ANGSTROM
    147         49  H    CARTESIAN Z     3.710338    -23.391357  KCAL/ANGSTROM
    148         50  H    CARTESIAN X     4.812552     -5.667805  KCAL/ANGSTROM
    149         50  H    CARTESIAN Y     0.674986     18.364702  KCAL/ANGSTROM
    150         50  H    CARTESIAN Z     3.232599     -3.986109  KCAL/ANGSTROM
    151         51  O    CARTESIAN X     6.381235    -43.091101  KCAL/ANGSTROM
    152         51  O    CARTESIAN Y    -2.845954    -59.835425  KCAL/ANGSTROM
    153         51  O    CARTESIAN Z    -3.241594      6.228087  KCAL/ANGSTROM
    154         52  H    CARTESIAN X     7.213332     38.472932  KCAL/ANGSTROM
    155         52  H    CARTESIAN Y    -2.190144     45.166299  KCAL/ANGSTROM
    156         52  H    CARTESIAN Z    -3.259613     -1.310183  KCAL/ANGSTROM
    157         53  H    CARTESIAN X     5.713646      7.971948  KCAL/ANGSTROM
    158         53  H    CARTESIAN Y    -2.166146     14.244906  KCAL/ANGSTROM
    159         53  H    CARTESIAN Z    -3.419085     -3.772497  KCAL/ANGSTROM
    160         54  O    CARTESIAN X     4.603479     10.004285  KCAL/ANGSTROM
    161         54  O    CARTESIAN Y     1.876957    -21.963826  KCAL/ANGSTROM
    162         54  O    CARTESIAN Z    -2.940379    -32.565116  KCAL/ANGSTROM
    163         55  H    CARTESIAN X     5.274429     -2.013482  KCAL/ANGSTROM
    164         55  H    CARTESIAN Y     2.318250      0.538228  KCAL/ANGSTROM
    165         55  H    CARTESIAN Z    -3.457269      0.363208  KCAL/ANGSTROM
    166         56  H    CARTESIAN X     4.260531     -6.798574  KCAL/ANGSTROM
    167         56  H    CARTESIAN Y     2.600704     23.312028  KCAL/ANGSTROM
    168         56  H    CARTESIAN Z    -2.284279     32.092292  KCAL/ANGSTROM
    169         57  O    CARTESIAN X     2.029285    -29.607499  KCAL/ANGSTROM
    170         57  O    CARTESIAN Y    -0.265231      2.637421  KCAL/ANGSTROM
    171         57  O    CARTESIAN Z     3.990387     -6.049972  KCAL/ANGSTROM
    172         58  H    CARTESIAN X     2.694097     17.444034  KCAL/ANGSTROM
    173         58  H    CARTESIAN Y     0.153610     11.339018  KCAL/ANGSTROM
    174         58  H    CARTESIAN Z     3.361677     -8.346290  KCAL/ANGSTROM
    175         59  H    CARTESIAN X     2.638297     16.086037  KCAL/ANGSTROM
    176         59  H    CARTESIAN Y    -0.530976     -8.931729  KCAL/ANGSTROM
    177         59  H    CARTESIAN Z     4.732831     13.317082  KCAL/ANGSTROM
    178         60  O    CARTESIAN X    11.000347    -51.722719  KCAL/ANGSTROM
    179         60  O    CARTESIAN Y    -3.367984    -19.196337  KCAL/ANGSTROM
    180         60  O    CARTESIAN Z     3.267840      6.693498  KCAL/ANGSTROM
    181         61  H    CARTESIAN X    11.928044     42.849640  KCAL/ANGSTROM
    182         61  H    CARTESIAN Y    -2.914328     20.437186  KCAL/ANGSTROM
    183         61  H    CARTESIAN Z     3.391960     -1.351965  KCAL/ANGSTROM
    184         62  H    CARTESIAN X    11.192536      7.288960  KCAL/ANGSTROM
    185         62  H    CARTESIAN Y    -4.008671     10.308619  KCAL/ANGSTROM
    186         62  H    CARTESIAN Z     2.583806      5.697751  KCAL/ANGSTROM
    187         63  O    CARTESIAN X     3.949340    -48.401264  KCAL/ANGSTROM
    188         63  O    CARTESIAN Y    -5.338373    -18.825395  KCAL/ANGSTROM
    189         63  O    CARTESIAN Z     4.965361    -24.966807  KCAL/ANGSTROM
    190         64  H    CARTESIAN X     3.734877     -4.324401  KCAL/ANGSTROM
    191         64  H    CARTESIAN Y    -4.638634      4.158833  KCAL/ANGSTROM
    192         64  H    CARTESIAN Z     4.326924     -7.672823  KCAL/ANGSTROM
    193         65  H    CARTESIAN X     4.873404     54.799914  KCAL/ANGSTROM
    194         65  H    CARTESIAN Y    -5.077424     13.412120  KCAL/ANGSTROM
    195         65  H    CARTESIAN Z     5.431098     32.741797  KCAL/ANGSTROM
    196         66  O    CARTESIAN X     7.984629     21.101750  KCAL/ANGSTROM
    197         66  O    CARTESIAN Y    -6.070835     -2.603606  KCAL/ANGSTROM
    198         66  O    CARTESIAN Z     5.474343    -46.125059  KCAL/ANGSTROM
    199         67  H    CARTESIAN X     8.058529     -3.660947  KCAL/ANGSTROM
    200         67  H    CARTESIAN Y    -5.146328     -0.312350  KCAL/ANGSTROM
    201         67  H    CARTESIAN Z     5.239953      2.432697  KCAL/ANGSTROM
    202         68  H    CARTESIAN X     7.578225    -19.011705  KCAL/ANGSTROM
    203         68  H    CARTESIAN Y    -6.086608      1.682595  KCAL/ANGSTROM
    204         68  H    CARTESIAN Z     6.421313     42.477774  KCAL/ANGSTROM
    205         69  H    CARTESIAN X     2.835065      6.939393  KCAL/ANGSTROM
    206         69  H    CARTESIAN Y     1.210573     -2.631075  KCAL/ANGSTROM
    207         69  H    CARTESIAN Z     0.329334      1.410230  KCAL/ANGSTROM
    208         70  H    CARTESIAN X     6.894852    -15.915165  KCAL/ANGSTROM
    209         70  H    CARTESIAN Y     0.551129     -8.765197  KCAL/ANGSTROM
    210         70  H    CARTESIAN Z     0.314903     -0.635557  KCAL/ANGSTROM




   ATOM   CHEMICAL          X               Y               Z
  NUMBER   SYMBOL      (ANGSTROMS)     (ANGSTROMS)     (ANGSTROMS)
 
     1       C          3.63665700  *   0.56479900  *   0.68784000  *
     2       O          3.41690600  *  -0.21343500  *   1.64170100  *
     3       N          4.84875000  *   0.62983100  *   0.01179000  *
     4       H          4.98333900  *   1.16880400  *  -0.86788500  *
     5       C          6.00636500  *  -0.04254800  *   0.52993600  *
     6       H          5.96119900  *  -0.17058900  *   1.59517300  *
     7       C          6.18155200  *  -1.44743200  *  -0.13658200  *
     8       H          5.27260200  *  -1.73624100  *  -0.68763800  *
     9       H          6.93261400  *  -1.51402300  *  -0.95512100  *
    10       C          6.48856400  *  -2.43277800  *   0.88950800  *
    11       C          5.54738800  *  -3.10321700  *   1.60109300  *
    12       H          4.44799700  *  -2.93146200  *   1.51389400  *
    13       C          5.92699900  *  -4.12189800  *   2.51599300  *
    14       H          5.09449000  *  -4.57993200  *   3.05237500  *
    15       C          7.26782400  *  -4.39630000  *   2.58489000  *
    16       H          7.70578900  *  -5.14034000  *   3.29187500  *
    17       C          7.85933700  *  -2.63006400  *   1.06102800  *
    18       H          8.53282200  *  -2.12648300  *   0.46388500  *
    19       C          8.22909700  *  -3.76865800  *   1.76218600  *
    20       H          9.24382800  *  -4.12524300  *   1.84680100  *
    21       O          6.36405600  *   3.65736600  *  -2.06719100  *
    22       H          5.57895300  *   3.73625700  *  -1.47602200  *
    23       H          7.05244600  *   3.39953100  *  -1.39362700  *
    24       O          3.31532500  *  -2.76997100  *   3.27773600  *
    25       H          2.51551600  *  -2.49456700  *   3.76952900  *
    26       H          3.61422400  *  -2.04171200  *   2.74035700  *
    27       O         11.53154200  *  -2.11653500  *  -0.07376300  *
    28       H         12.26493000  *  -1.83774200  *  -0.66723600  *
    29       H         11.19530200  *  -1.34182700  *   0.41277000  *
    30       O          9.43072600  *  -1.31533200  *   3.54476000  *
    31       H          9.53934000  *  -2.24410800  *   3.43925400  *
    32       H          9.93234200  *  -0.82717000  *   2.73901000  *
    33       O         11.24221400  *  -4.74228300  *   0.88097300  *
    34       H         11.45093900  *  -3.83340100  *   0.51652100  *
    35       H         10.53099200  *  -5.14775900  *   0.23739500  *
    36       O          9.51527900  *  -3.04010500  *  -1.72415300  *
    37       H         10.22234100  *  -2.62251300  *  -1.12753900  *
    38       H          9.29927000  *  -2.32774900  *  -2.36685900  *
    39       O          4.63173300  *  -0.80157100  *  -3.39069800  *
    40       H          4.91934400  *  -0.05921700  *  -2.78852700  *
    41       H          4.03693900  *  -0.24590500  *  -3.95416700  *
    42       O          6.62754800  *  -6.00252300  *  -0.15296000  *
    43       H          7.51650800  *  -5.93089500  *  -0.52062000  *
    44       H          6.59531300  *  -5.07270400  *   0.26867100  *
    45       O          7.20837900  *  -0.05762500  *   3.73436100  *
    46       H          8.03908700  *  -0.44629300  *   3.49513300  *
    47       H          6.74053800  *  -0.72264100  *   4.30484000  *
    48       O          4.31528000  *   0.96953100  *   4.00091200  *
    49       H          4.27429400  *   1.95493100  *   3.71033800  *
    50       H          4.81255200  *   0.67498600  *   3.23259900  *
    51       O          6.38123500  *  -2.84595400  *  -3.24159400  *
    52       H          7.21333200  *  -2.19014400  *  -3.25961300  *
    53       H          5.71364600  *  -2.16614600  *  -3.41908500  *
    54       O          4.60347900  *   1.87695700  *  -2.94037900  *
    55       H          5.27442900  *   2.31825000  *  -3.45726900  *
    56       H          4.26053100  *   2.60070400  *  -2.28427900  *
    57       O          2.02928500  *  -0.26523100  *   3.99038700  *
    58       H          2.69409700  *   0.15361000  *   3.36167700  *
    59       H          2.63829700  *  -0.53097600  *   4.73283100  *
    60       O         11.00034700  *  -3.36798400  *   3.26784000  *
    61       H         11.92804400  *  -2.91432800  *   3.39196000  *
    62       H         11.19253600  *  -4.00867100  *   2.58380600  *
    63       O          3.94934000  *  -5.33837300  *   4.96536100  *
    64       H          3.73487700  *  -4.63863400  *   4.32692400  *
    65       H          4.87340400  *  -5.07742400  *   5.43109800  *
    66       O          7.98462900  *  -6.07083500  *   5.47434300  *
    67       H          8.05852900  *  -5.14632800  *   5.23995300  *
    68       H          7.57822500  *  -6.08660800  *   6.42131300  *
    69       H          2.83506500  *   1.21057300  *   0.32933400  *
    70       H          6.89485200  *   0.55112900  *   0.31490300  *

                             CARTESIAN COORDINATES

   1    C        3.636657000     0.564799000     0.687840000
   2    O        3.416906000    -0.213435000     1.641701000
   3    N        4.848750000     0.629831000     0.011790000
   4    H        4.983339000     1.168804000    -0.867885000
   5    C        6.006365000    -0.042548000     0.529936000
   6    H        5.961199000    -0.170589000     1.595173000
   7    C        6.181552000    -1.447432000    -0.136582000
   8    H        5.272602000    -1.736241000    -0.687638000
   9    H        6.932614000    -1.514023000    -0.955121000
  10    C        6.488564000    -2.432778000     0.889508000
  11    C        5.547388000    -3.103217000     1.601093000
  12    H        4.447997000    -2.931462000     1.513894000
  13    C        5.926999000    -4.121898000     2.515993000
  14    H        5.094490000    -4.579932000     3.052375000
  15    C        7.267824000    -4.396300000     2.584890000
  16    H        7.705789000    -5.140340000     3.291875000
  17    C        7.859337000    -2.630064000     1.061028000
  18    H        8.532822000    -2.126483000     0.463885000
  19    C        8.229097000    -3.768658000     1.762186000
  20    H        9.243828000    -4.125243000     1.846801000
  21    O        6.364056000     3.657366000    -2.067191000
  22    H        5.578953000     3.736257000    -1.476022000
  23    H        7.052446000     3.399531000    -1.393627000
  24    O        3.315325000    -2.769971000     3.277736000
  25    H        2.515516000    -2.494567000     3.769529000
  26    H        3.614224000    -2.041712000     2.740357000
  27    O       11.531542000    -2.116535000    -0.073763000
  28    H       12.264930000    -1.837742000    -0.667236000
  29    H       11.195302000    -1.341827000     0.412770000
  30    O        9.430726000    -1.315332000     3.544760000
  31    H        9.539340000    -2.244108000     3.439254000
  32    H        9.932342000    -0.827170000     2.739010000
  33    O       11.242214000    -4.742283000     0.880973000
  34    H       11.450939000    -3.833401000     0.516521000
  35    H       10.530992000    -5.147759000     0.237395000
  36    O        9.515279000    -3.040105000    -1.724153000
  37    H       10.222341000    -2.622513000    -1.127539000
  38    H        9.299270000    -2.327749000    -2.366859000
  39    O        4.631733000    -0.801571000    -3.390698000
  40    H        4.919344000    -0.059217000    -2.788527000
  41    H        4.036939000    -0.245905000    -3.954167000
  42    O        6.627548000    -6.002523000    -0.152960000
  43    H        7.516508000    -5.930895000    -0.520620000
  44    H        6.595313000    -5.072704000     0.268671000
  45    O        7.208379000    -0.057625000     3.734361000
  46    H        8.039087000    -0.446293000     3.495133000
  47    H        6.740538000    -0.722641000     4.304840000
  48    O        4.315280000     0.969531000     4.000912000
  49    H        4.274294000     1.954931000     3.710338000
  50    H        4.812552000     0.674986000     3.232599000
  51    O        6.381235000    -2.845954000    -3.241594000
  52    H        7.213332000    -2.190144000    -3.259613000
  53    H        5.713646000    -2.166146000    -3.419085000
  54    O        4.603479000     1.876957000    -2.940379000
  55    H        5.274429000     2.318250000    -3.457269000
  56    H        4.260531000     2.600704000    -2.284279000
  57    O        2.029285000    -0.265231000     3.990387000
  58    H        2.694097000     0.153610000     3.361677000
  59    H        2.638297000    -0.530976000     4.732831000
  60    O       11.000347000    -3.367984000     3.267840000
  61    H       11.928044000    -2.914328000     3.391960000
  62    H       11.192536000    -4.008671000     2.583806000
  63    O        3.949340000    -5.338373000     4.965361000
  64    H        3.734877000    -4.638634000     4.326924000
  65    H        4.873404000    -5.077424000     5.431098000
  66    O        7.984629000    -6.070835000     5.474343000
  67    H        8.058529000    -5.146328000     5.239953000
  68    H        7.578225000    -6.086608000     6.421313000
  69    H        2.835065000     1.210573000     0.329334000
  70    H        6.894852000     0.551129000     0.314903000


           Empirical Formula: C9 H43 N O17  =    70 atoms



      MOLECULAR POINT GROUP   :   C1  


                EIGENVECTORS  


   Root No.      85        86        87        88        89        90        91        92

                85 A      86 A      87 A      88 A      89 A      90 A      91 A      92 A   

               -12.726   -12.618   -12.565   -12.462   -12.148   -11.602   -11.033   -10.903
  
  S   C    1    0.0019   -0.0304   -0.0347    0.0194   -0.0022    0.0853   -0.0039    0.0030
  Px  C    1   -0.0049   -0.0436   -0.0319    0.0243    0.0127   -0.1258    0.0204   -0.0165
  Py  C    1    0.0131   -0.0045   -0.0238    0.0085    0.0101    0.0991    0.0578   -0.0171
  Pz  C    1   -0.0098    0.0313    0.0154   -0.0151    0.0138   -0.0480    0.0568   -0.0222
  S   O    2    0.0093   -0.0151   -0.0074    0.0084   -0.0013    0.0145    0.0007    0.0005
  Px  O    2    0.0146   -0.0497   -0.2023    0.0551   -0.0144    0.7625   -0.0703    0.0525
  Py  O    2   -0.0220    0.0692    0.0540   -0.0281    0.0224   -0.3448   -0.2523    0.0675
  Pz  O    2    0.0078    0.0097   -0.0240    0.0110    0.0047    0.0034   -0.2467    0.0805
  S   N    3   -0.0012    0.0150    0.0611   -0.0131    0.0016   -0.0953    0.0035   -0.0019
  Px  N    3    0.0124   -0.0014    0.0258   -0.0035   -0.0041    0.2540    0.1591   -0.0372
  Py  N    3   -0.0019   -0.0082   -0.0346   -0.0080    0.0190   -0.0084    0.4406   -0.1514
  Pz  N    3    0.0109   -0.0744    0.0488    0.0210    0.0138   -0.1198    0.3022   -0.1039
  S   H    4   -0.0075    0.0528   -0.0290   -0.0228   -0.0017    0.0834   -0.0093    0.0052
  S   C    5   -0.0004   -0.0025   -0.0193    0.0072   -0.0014    0.0099   -0.0590    0.0148
  Px  C    5   -0.0023   -0.1349   -0.0908    0.0732    0.0074   -0.1792   -0.0334   -0.0046
  Py  C    5    0.0085   -0.1352   -0.0849    0.0567   -0.0058    0.0020   -0.0027    0.0077
  Pz  C    5   -0.0199    0.2010    0.0462   -0.1182   -0.0081   -0.0014   -0.0447    0.0278
  S   H    6   -0.0166    0.1853    0.0276   -0.1014   -0.0072    0.0385   -0.0745    0.0322
  S   C    7    0.0053   -0.0409    0.0533   -0.0036    0.0025    0.0000    0.0849   -0.0225
  Px  C    7    0.0093    0.1533    0.4037   -0.1145   -0.0164    0.1310   -0.0457    0.0439
  Py  C    7   -0.0124    0.1859    0.0166   -0.0751    0.0105   -0.0073    0.0883   -0.0389
  Pz  C    7    0.0262   -0.2554    0.0989    0.1513    0.0020    0.0059    0.0098   -0.0146
  S   H    8   -0.0110   -0.0545   -0.2782    0.0363    0.0089   -0.0910    0.0497   -0.0226
  S   H    9   -0.0076    0.2091    0.1873   -0.1319   -0.0090    0.0702    0.0118    0.0151
  S   C   10    0.0021   -0.0372   -0.0083    0.0232   -0.0008    0.0050   -0.0117    0.0158
  Px  C   10   -0.0066    0.0267   -0.3029    0.0055    0.0082   -0.0445    0.0083    0.0161
  Py  C   10    0.0177   -0.1378    0.0219    0.0766    0.0018    0.0018    0.2512   -0.0716
  Pz  C   10   -0.0238    0.2455   -0.0698   -0.1036    0.0078   -0.0285    0.2688   -0.0786
  S   C   11    0.0035    0.0203    0.0164   -0.0145    0.0001    0.0023   -0.0004   -0.0061
  Px  C   11   -0.0042   -0.0493    0.2607   -0.0007   -0.0070    0.0396    0.0184   -0.0372
  Py  C   11   -0.0189    0.2364   -0.0583   -0.0999    0.0017    0.0057    0.0433   -0.3359
  Pz  C   11    0.0116   -0.1578   -0.0379    0.0695    0.0003    0.0043    0.0689   -0.3636
  S   H   12   -0.0035    0.0906   -0.2026   -0.0257    0.0052   -0.0250   -0.0115    0.0074
  S   C   13    0.0013   -0.0050    0.0049    0.0050   -0.0003    0.0018   -0.0018    0.0075
  Px  C   13   -0.0080    0.0283   -0.1996   -0.0024    0.0029   -0.0153   -0.0339   -0.0206
  Py  C   13    0.0161   -0.2258    0.0234    0.0832   -0.0060    0.0254   -0.2225   -0.2866
  Pz  C   13   -0.0136    0.1660   -0.0613   -0.0765   -0.0027    0.0130   -0.2598   -0.2871
  S   H   14   -0.0081    0.1245    0.0862   -0.0562   -0.0012    0.0078   -0.0095    0.0021
  S   C   15    0.0013   -0.0092    0.0132    0.0036   -0.0003    0.0011   -0.0057   -0.0114
  Px  C   15    0.0082   -0.0610    0.1928    0.0119   -0.0047    0.0204   -0.0505   -0.0123
  Py  C   15   -0.0093    0.0878   -0.0767   -0.0394   -0.0043    0.0070   -0.2973    0.0635
  Pz  C   15    0.0180   -0.1996    0.0149    0.0653   -0.0059    0.0149   -0.2432    0.0466
  S   H   16    0.0180   -0.1807    0.1176    0.0640   -0.0024    0.0116    0.0239   -0.0243
  S   C   17   -0.0011   -0.0023   -0.0528    0.0064    0.0029   -0.0195    0.0378    0.0295
  Px  C   17    0.0082   -0.0473    0.2968    0.0024   -0.0078    0.0412    0.0196    0.0186
  Py  C   17   -0.0180    0.1444   -0.1434   -0.0474    0.0055   -0.0397    0.1679    0.2746
  Pz  C   17    0.0128   -0.0787    0.0428    0.0277    0.0004   -0.0138    0.2631    0.3609
  S   H   18   -0.0097    0.0795    0.0574   -0.0343   -0.0007    0.0031   -0.0208   -0.0283
  S   C   19   -0.0002    0.0184   -0.0069   -0.0055   -0.0002    0.0035    0.0001   -0.0242
  Px  C   19   -0.0063   -0.0023   -0.2213    0.0096    0.0036   -0.0238    0.0008    0.1378
  Py  C   19    0.0232   -0.1894    0.1348    0.0628   -0.0056    0.0128    0.0104    0.3120
  Pz  C   19   -0.0078    0.0736   -0.0480   -0.0329   -0.0012   -0.0164   -0.0353    0.4257
  S   H   20   -0.0108    0.0608   -0.2052   -0.0139    0.0042   -0.0218   -0.0041    0.0366
  S   O   21   -0.0000   -0.0001   -0.0004    0.0000    0.0000    0.0000   -0.0000    0.0000
  Px  O   21   -0.0001    0.0011   -0.0003   -0.0005   -0.0000    0.0024    0.0008   -0.0002
  Py  O   21   -0.0001   -0.0007   -0.0028    0.0005   -0.0000    0.0034   -0.0003    0.0001
  Pz  O   21    0.0001    0.0011    0.0026   -0.0006   -0.0001   -0.0020   -0.0013    0.0005
  S   H   22    0.0000   -0.0001    0.0003    0.0000    0.0000   -0.0002    0.0003   -0.0001
  S   H   23    0.0000   -0.0000    0.0004    0.0000    0.0000   -0.0001    0.0001   -0.0000
  S   O   24   -0.0212   -0.0095    0.0088    0.0030   -0.0009    0.0011    0.0024    0.0078
  Px  O   24   -0.0545    0.0179   -0.0556   -0.0021   -0.0072   -0.0048    0.0042    0.0198
  Py  O   24    0.1121    0.0201    0.0016   -0.0050    0.0082   -0.0354   -0.0085    0.0168
  Pz  O   24    0.0406    0.0584   -0.1412   -0.0110    0.0020    0.0084    0.0058   -0.0016
  S   H   25    0.0131    0.0109   -0.0192   -0.0031    0.0003   -0.0006   -0.0024   -0.0112
  S   H   26    0.0097   -0.0010    0.0111   -0.0001   -0.0003    0.0033   -0.0001   -0.0017
  S   O   27    0.0001   -0.0007    0.0002    0.0002   -0.0000   -0.0000    0.0003    0.0002
  Px  O   27   -0.0004    0.0039    0.0047   -0.0011   -0.0001    0.0005   -0.0010   -0.0013
  Py  O   27    0.0003   -0.0022   -0.0036    0.0010    0.0000   -0.0002    0.0001   -0.0003
  Pz  O   27   -0.0002    0.0024    0.0037   -0.0004   -0.0001    0.0005   -0.0007   -0.0014
  S   H   28   -0.0001    0.0009    0.0004   -0.0003   -0.0000    0.0000   -0.0003   -0.0002
  S   H   29    0.0000   -0.0000   -0.0004    0.0001    0.0000   -0.0000   -0.0001   -0.0000
  S   O   30    0.0003   -0.0023    0.0002    0.0010   -0.0015   -0.0001    0.0006   -0.0014
  Px  O   30   -0.0008    0.0061    0.0071   -0.0040    0.0079   -0.0001    0.0058    0.0131
  Py  O   30    0.0008   -0.0067   -0.0021    0.0021   -0.0014   -0.0014    0.0024    0.0353
  Pz  O   30    0.0001   -0.0006    0.0065   -0.0012    0.0030   -0.0018    0.0115    0.0387
  S   H   31   -0.0003    0.0022    0.0001   -0.0009    0.0012    0.0001   -0.0006    0.0011
  S   H   32   -0.0001    0.0007   -0.0004   -0.0004    0.0006   -0.0000   -0.0003    0.0030
  S   O   33   -0.0000   -0.0002    0.0008    0.0001   -0.0001    0.0003    0.0001   -0.0005
  Px  O   33   -0.0079    0.0371   -0.1212   -0.0070    0.0020   -0.0063   -0.0010    0.0001
  Py  O   33    0.0040   -0.0187    0.0582    0.0036   -0.0009    0.0028    0.0008   -0.0027
  Pz  O   33    0.0041   -0.0183    0.0638    0.0032   -0.0010    0.0028    0.0000   -0.0073
  S   H   34   -0.0000    0.0003   -0.0012   -0.0001    0.0001   -0.0002   -0.0000   -0.0000
  S   H   35    0.0002   -0.0011    0.0038    0.0002   -0.0000    0.0001   -0.0001   -0.0004
  S   O   36    0.0000    0.0000   -0.0003   -0.0000    0.0000   -0.0003    0.0014    0.0023
  Px  O   36   -0.0046    0.0452    0.0391   -0.0165   -0.0009    0.0046   -0.0082   -0.0105
  Py  O   36    0.0032   -0.0341   -0.0287    0.0124    0.0007   -0.0041    0.0061    0.0077
  Pz  O   36    0.0045   -0.0402   -0.0360    0.0165    0.0008   -0.0036    0.0100    0.0143
  S   H   37    0.0001   -0.0005   -0.0005    0.0006   -0.0000    0.0002   -0.0005   -0.0008
  S   H   38   -0.0000   -0.0005    0.0001    0.0003    0.0000    0.0001   -0.0015   -0.0027
  S   O   39   -0.0001    0.0007    0.0008   -0.0028   -0.0001    0.0012   -0.0003    0.0001
  Px  O   39   -0.0044    0.0043   -0.0416    0.0069    0.0005   -0.0026    0.0014   -0.0006
  Py  O   39    0.0000   -0.0065   -0.0022    0.0071    0.0006   -0.0075    0.0076   -0.0028
  Pz  O   39    0.0048   -0.0117    0.0458   -0.0100   -0.0003    0.0004    0.0038   -0.0012
  S   H   40    0.0004   -0.0023    0.0030    0.0008    0.0000   -0.0006   -0.0009    0.0003
  S   H   41   -0.0002    0.0016   -0.0033    0.0039    0.0001   -0.0011    0.0003   -0.0001
  S   O   42   -0.0001    0.0011    0.0004   -0.0002    0.0000    0.0001   -0.0013   -0.0023
  Px  O   42    0.0009   -0.0083   -0.0009    0.0015   -0.0004    0.0002   -0.0075    0.0132
  Py  O   42    0.0005   -0.0044   -0.0090    0.0000   -0.0004    0.0004   -0.0112   -0.0041
  Pz  O   42    0.0013   -0.0129   -0.0050    0.0025   -0.0008    0.0013   -0.0212   -0.0020
  S   H   43    0.0001   -0.0002    0.0003    0.0001    0.0000   -0.0002    0.0024    0.0026
  S   H   44    0.0002   -0.0014   -0.0005    0.0003   -0.0001    0.0000    0.0005    0.0018
  S   O   45    0.0005   -0.0054   -0.0011    0.0031   -0.0032   -0.0005    0.0022   -0.0012
  Px  O   45   -0.0043    0.0412    0.0055   -0.0192    0.0086    0.0032   -0.0066   -0.0057
  Py  O   45   -0.0039    0.0345   -0.0023   -0.0154    0.0032    0.0007    0.0006    0.0067
  Pz  O   45   -0.0070    0.0754    0.0033   -0.0344   -0.0048    0.0022   -0.0062    0.0068
  S   H   46   -0.0004    0.0028    0.0009   -0.0016    0.0049    0.0004   -0.0012    0.0010
  S   H   47   -0.0003    0.0028    0.0001   -0.0016    0.0011   -0.0000   -0.0014    0.0010
  S   O   48   -0.0072    0.0057   -0.0018   -0.0022    0.0000    0.0026   -0.0021    0.0007
  Px  O   48   -0.0728   -0.0199    0.0262    0.0012    0.8250    0.0026   -0.0093    0.0011
  Py  O   48   -0.0190   -0.0009    0.0036   -0.0014    0.1722    0.0097   -0.0080    0.0025
  Pz  O   48   -0.0559    0.0203    0.0025   -0.0123    0.4742    0.0395   -0.0373    0.0123
  S   H   49    0.0025   -0.0015    0.0001    0.0005    0.0036    0.0012   -0.0009    0.0004
  S   H   50    0.0083   -0.0067    0.0020    0.0027    0.0031   -0.0024    0.0026   -0.0007
  S   O   51   -0.0006    0.0052   -0.0001   -0.0025   -0.0001    0.0004    0.0001    0.0000
  Px  O   51    0.0016   -0.0524   -0.0255   -0.0857    0.0001   -0.0029    0.0002   -0.0000
  Py  O   51   -0.0001    0.0383    0.0134    0.1563    0.0013   -0.0046   -0.0007   -0.0009
  Pz  O   51   -0.0179    0.4089    0.0710    0.8860    0.0042   -0.0058   -0.0020   -0.0013
  S   H   52    0.0004   -0.0072   -0.0043    0.0029    0.0002   -0.0011   -0.0000   -0.0001
  S   H   53    0.0005   -0.0028    0.0031    0.0011   -0.0000    0.0002   -0.0003    0.0000
  S   O   54    0.0002   -0.0015    0.0009    0.0003    0.0001   -0.0035    0.0009   -0.0004
  Px  O   54    0.0040   -0.0232    0.0153    0.0084    0.0006   -0.0178    0.0027   -0.0011
  Py  O   54   -0.0012    0.0063   -0.0031   -0.0017   -0.0001    0.0017   -0.0019    0.0006
  Pz  O   54    0.0045   -0.0279    0.0188    0.0105    0.0009   -0.0277    0.0036   -0.0016
  S   H   55   -0.0003    0.0021   -0.0013   -0.0007   -0.0001    0.0041   -0.0011    0.0005
  S   H   56    0.0001   -0.0009    0.0006    0.0006    0.0000   -0.0004   -0.0001    0.0000
  S   O   57    0.0085    0.0028   -0.0002   -0.0004   -0.0312   -0.0018   -0.0001    0.0002
  Px  O   57   -0.1788   -0.0267    0.0013    0.0055    0.1903    0.0549    0.0322   -0.0071
  Py  O   57    0.8614    0.0597   -0.0211   -0.0102    0.1521    0.0044    0.0084   -0.0067
  Pz  O   57    0.4359    0.0349    0.0003   -0.0067   -0.0150   -0.0441   -0.0212    0.0040
  S   H   58   -0.0072   -0.0024   -0.0011    0.0005    0.0206    0.0007   -0.0021    0.0005
  S   H   59   -0.0000   -0.0010    0.0022   -0.0000    0.0146   -0.0038   -0.0014    0.0005
  S   O   60    0.0004   -0.0021    0.0073    0.0005   -0.0005    0.0007    0.0004   -0.0046
  Px  O   60   -0.0014    0.0063   -0.0216   -0.0013    0.0008   -0.0012   -0.0006    0.0071
  Py  O   60    0.0017   -0.0077    0.0207    0.0018   -0.0013    0.0002   -0.0002   -0.0036
  Pz  O   60   -0.0020    0.0101   -0.0356   -0.0023    0.0012   -0.0029   -0.0004    0.0113
  S   H   61   -0.0006    0.0029   -0.0121   -0.0007    0.0004   -0.0012   -0.0006    0.0067
  S   H   62    0.0001   -0.0005    0.0033    0.0000    0.0002    0.0002   -0.0001    0.0008
  S   O   63   -0.0022    0.0086    0.0034   -0.0033   -0.0001    0.0004   -0.0004   -0.0003
  Px  O   63    0.0120   -0.1061   -0.0584    0.0336    0.0005   -0.0021    0.0052    0.0032
  Py  O   63    0.0032    0.0478    0.0362   -0.0093    0.0008   -0.0038    0.0043    0.0062
  Pz  O   63   -0.0200    0.1432    0.0762   -0.0444   -0.0010    0.0042   -0.0035   -0.0026
  S   H   64    0.0020   -0.0098   -0.0046    0.0039    0.0001   -0.0004    0.0004   -0.0001
  S   H   65    0.0008   -0.0056   -0.0029    0.0022    0.0000   -0.0001    0.0002   -0.0000
  S   O   66   -0.0004    0.0046   -0.0030   -0.0017    0.0001   -0.0004   -0.0003    0.0007
  Px  O   66    0.0035   -0.0313    0.0183    0.0096   -0.0003    0.0011    0.0005   -0.0017
  Py  O   66   -0.0026    0.0259   -0.0142   -0.0087    0.0004   -0.0016    0.0042    0.0014
  Pz  O   66    0.0024   -0.0224    0.0137    0.0073   -0.0002    0.0010    0.0009   -0.0015
  S   H   67   -0.0003    0.0024   -0.0014   -0.0007    0.0000    0.0000   -0.0008   -0.0000
  S   H   68    0.0009   -0.0093    0.0058    0.0033   -0.0001    0.0006    0.0005   -0.0010
  S   H   69    0.0147   -0.0056   -0.0305    0.0086   -0.0110    0.2682   -0.0046    0.0143
  S   H   70    0.0043   -0.1665   -0.1115    0.0891    0.0023   -0.1069   -0.0605    0.0090


   Root No.      93        94        95        96        97        98        99       100

                93 A      94 A      95 A      96 A      97 A      98 A      99 A     100 A   

               -10.374    -0.985    -0.818     0.112     1.284     1.382     2.044     2.350
  
  S   C    1   -0.0100   -0.0023   -0.0085    0.0443   -0.3186    0.0395    0.0003    0.0073
  Px  C    1    0.0415   -0.0015   -0.0309    0.2684   -0.3391    0.0546   -0.0013    0.0012
  Py  C    1    0.0753    0.0024   -0.0489    0.5618    0.0407    0.0261   -0.0026    0.0008
  Pz  C    1    0.0789    0.0015   -0.0410    0.5065    0.1997    0.0027    0.0014    0.0022
  S   O    2    0.0008    0.0008   -0.0000   -0.0007   -0.0077    0.0018   -0.0012   -0.0019
  Px  O    2   -0.0918    0.0021    0.0190   -0.1542    0.1404   -0.0231   -0.0002   -0.0017
  Py  O    2   -0.1864   -0.0016    0.0270   -0.3134   -0.0118   -0.0149   -0.0012   -0.0023
  Pz  O    2   -0.2080   -0.0015    0.0240   -0.2433   -0.0825   -0.0011    0.0011    0.0010
  S   N    3   -0.0028    0.0035    0.0127   -0.0212    0.4395   -0.0548    0.0017   -0.0025
  Px  N    3    0.1027    0.0023    0.0100   -0.0742   -0.0249   -0.0043    0.0019   -0.0029
  Py  N    3    0.4247   -0.0023   -0.0017   -0.2995   -0.0883   -0.0265   -0.0003    0.0036
  Pz  N    3    0.2492    0.0009    0.0105   -0.2054    0.0851   -0.0319    0.0027   -0.0106
  S   H    4    0.0163   -0.0018   -0.0150    0.0445   -0.3933    0.0488   -0.0007   -0.0039
  S   C    5    0.0355    0.0027   -0.0631    0.0140   -0.1691   -0.0389   -0.0047   -0.0046
  Px  C    5   -0.0381    0.0012    0.0034    0.0110    0.3655   -0.0514    0.0019   -0.0051
  Py  C    5   -0.2265   -0.0093    0.1013   -0.0439   -0.1961    0.1381   -0.0042    0.0185
  Pz  C    5   -0.0670    0.0026    0.0409   -0.0223    0.1541    0.0332   -0.0058    0.0018
  S   H    6   -0.0381   -0.0006   -0.0105    0.0317   -0.0185   -0.0072    0.0023    0.0053
  S   C    7    0.0489    0.0086    0.0133   -0.0555    0.0148    0.0095   -0.0027   -0.0056
  Px  C    7   -0.0423    0.0152   -0.0082    0.0123    0.0009   -0.0127   -0.0057   -0.0065
  Py  C    7    0.2569   -0.0104    0.0242   -0.0980   -0.0301    0.0791   -0.0071    0.0325
  Pz  C    7    0.1003    0.0084   -0.0098   -0.0399    0.0130    0.0062    0.0118   -0.0205
  S   H    8   -0.0522   -0.0069    0.0483   -0.0043    0.0596    0.0372   -0.0032   -0.0043
  S   H    9   -0.0678   -0.0005    0.0379    0.0103   -0.0209    0.0304    0.0108   -0.0061
  S   C   10   -0.0105   -0.0138   -0.0102    0.0029   -0.0311    0.0165   -0.0073   -0.0034
  Px  C   10    0.0342   -0.0189   -0.0100   -0.0027    0.0207    0.0212   -0.0174   -0.0077
  Py  C   10   -0.3133   -0.0381    0.4034    0.0311   -0.0094    0.3193   -0.0031    0.0238
  Pz  C   10   -0.2105   -0.0450    0.3818    0.0243    0.0724    0.2718    0.0063   -0.0253
  S   C   11    0.0027   -0.0015   -0.0039   -0.0051    0.0047    0.0078   -0.0124   -0.0223
  Px  C   11   -0.0273   -0.0256   -0.0177    0.0017   -0.0006   -0.0162   -0.0100   -0.0019
  Py  C   11   -0.1837   -0.2986   -0.2377   -0.0058   -0.0390   -0.2726   -0.0030    0.0359
  Pz  C   11   -0.2430   -0.3057   -0.2651   -0.0039   -0.0289   -0.3014    0.0006   -0.0381
  S   H   12    0.0228    0.0023   -0.0120    0.0005    0.0065   -0.0022   -0.0030   -0.0010
  S   C   13   -0.0029   -0.0041   -0.0006   -0.0002   -0.0049    0.0171   -0.0124   -0.0012
  Px  C   13    0.0243    0.0437   -0.0363   -0.0054    0.0111    0.0476   -0.0172    0.0021
  Py  C   13    0.0811    0.3600   -0.1616   -0.0264    0.0240    0.2639    0.0098    0.0475
  Pz  C   13    0.1409    0.3800   -0.1871   -0.0320    0.0477    0.2773   -0.0033   -0.0322
  S   H   14    0.0159   -0.0053    0.0114    0.0014   -0.0018   -0.0056    0.0029    0.0374
  S   C   15   -0.0008   -0.0128    0.0052    0.0007   -0.0021    0.0039   -0.0018   -0.0468
  Px  C   15    0.0420   -0.0238    0.0684    0.0072   -0.0027   -0.0197   -0.0196   -0.0382
  Py  C   15    0.2924   -0.1083    0.4010    0.0453   -0.0419   -0.2683    0.0081    0.0677
  Pz  C   15    0.2397   -0.0801    0.3863    0.0434   -0.0376   -0.2724   -0.0064   -0.0928
  S   H   16   -0.0320    0.0149    0.0126    0.0020   -0.0057   -0.0110    0.0182    0.1073
  S   C   17   -0.0082    0.0485   -0.0229   -0.0041   -0.0054   -0.0297   -0.0193   -0.0100
  Px  C   17   -0.0487    0.0466   -0.0298    0.0032   -0.0005   -0.0349   -0.0328   -0.0191
  Py  C   17   -0.0813    0.3411   -0.0657    0.0070   -0.0441   -0.2573   -0.0171    0.0269
  Pz  C   17   -0.1874    0.4327   -0.1245    0.0059   -0.0413   -0.3071    0.0172   -0.0260
  S   H   18    0.0229   -0.0195    0.0084   -0.0003    0.0071    0.0083    0.0325   -0.0086
  S   C   19   -0.0156    0.0230    0.0339    0.0040   -0.0070   -0.0118   -0.0524    0.0007
  Px  C   19    0.0468   -0.0906   -0.0736   -0.0093    0.0117    0.0768   -0.0800    0.0060
  Py  C   19    0.0499   -0.2798   -0.1964   -0.0265    0.0286    0.2473    0.0176    0.0398
  Pz  C   19    0.1503   -0.3469   -0.3003   -0.0396    0.0506    0.2847   -0.0084   -0.0141
  S   H   20    0.0257   -0.0023   -0.0046   -0.0009   -0.0007   -0.0116    0.0644    0.0139
  S   O   21   -0.0001    0.0001    0.0002   -0.0011    0.0305   -0.0047   -0.0017    0.0131
  Px  O   21    0.0014   -0.0000   -0.0004    0.0007   -0.0151    0.0021    0.0004   -0.0023
  Py  O   21    0.0000   -0.0001   -0.0002    0.0010   -0.0154    0.0024    0.0007   -0.0051
  Pz  O   21   -0.0009    0.0001    0.0004   -0.0017    0.0494   -0.0075   -0.0026    0.0210
  S   H   22    0.0003   -0.0001   -0.0004    0.0015   -0.0548    0.0083    0.0029   -0.0234
  S   H   23    0.0000   -0.0001   -0.0002    0.0016   -0.0510    0.0080    0.0032   -0.0260
  S   O   24    0.0004    0.0045    0.0097   -0.0042    0.0049    0.0088   -0.0016   -0.0115
  Px  O   24    0.0045    0.0013    0.0029   -0.0012   -0.0021   -0.0005    0.0007    0.0049
  Py  O   24    0.0049    0.0103    0.0140   -0.0088    0.0087    0.0139   -0.0019   -0.0104
  Pz  O   24    0.0019   -0.0058   -0.0058    0.0055   -0.0016   -0.0055   -0.0000   -0.0008
  S   H   25   -0.0016   -0.0048   -0.0127    0.0025   -0.0067   -0.0121    0.0026    0.0174
  S   H   26    0.0005   -0.0082   -0.0140    0.0115   -0.0095   -0.0161    0.0027    0.0189
  S   O   27   -0.0003    0.0007   -0.0004   -0.0001   -0.0002   -0.0007   -0.1829    0.0182
  Px  O   27    0.0005   -0.0006    0.0002    0.0000   -0.0000    0.0005   -0.0611    0.0063
  Py  O   27   -0.0001    0.0003    0.0003   -0.0001   -0.0004   -0.0007   -0.1548    0.0168
  Pz  O   27    0.0001   -0.0008    0.0006    0.0001   -0.0000    0.0011    0.0328   -0.0053
  S   H   28    0.0003   -0.0009    0.0004    0.0001    0.0004    0.0011    0.2976   -0.0313
  S   H   29    0.0001   -0.0005    0.0000    0.0001    0.0005    0.0006    0.2769   -0.0276
  S   O   30   -0.0002    0.0022    0.0067    0.0004   -0.0012   -0.0018   -0.0896   -0.0063
  Px  O   30   -0.0042    0.0030    0.0022    0.0005   -0.0005   -0.0021   -0.0498   -0.0018
  Py  O   30    0.0066   -0.0110   -0.0127   -0.0015    0.0016    0.0081    0.0809    0.0069
  Pz  O   30   -0.0026    0.0022   -0.0093   -0.0004    0.0009   -0.0012    0.0892    0.0048
  S   H   31    0.0006   -0.0079   -0.0128   -0.0012    0.0024    0.0075    0.1672    0.0131
  S   H   32    0.0005    0.0008   -0.0075   -0.0003    0.0014   -0.0012    0.1466    0.0079
  S   O   33   -0.0005   -0.0008   -0.0011   -0.0002    0.0001    0.0024   -0.1791    0.0104
  Px  O   33    0.0033    0.0028    0.0027    0.0003   -0.0005   -0.0044    0.1025   -0.0039
  Py  O   33   -0.0023    0.0013    0.0005    0.0000   -0.0003   -0.0005   -0.1730    0.0122
  Pz  O   33   -0.0024    0.0027    0.0035    0.0005   -0.0005   -0.0043    0.2039   -0.0154
  S   H   34    0.0002    0.0004    0.0013    0.0002   -0.0000   -0.0027    0.3621   -0.0259
  S   H   35   -0.0000    0.0031    0.0036    0.0006   -0.0007   -0.0072    0.3255   -0.0179
  S   O   36   -0.0006    0.0028   -0.0018   -0.0003    0.0002   -0.0035   -0.0895    0.0113
  Px  O   36    0.0021   -0.0008   -0.0001   -0.0000   -0.0003   -0.0006   -0.1001    0.0112
  Py  O   36   -0.0014    0.0048   -0.0028   -0.0006    0.0006   -0.0057   -0.1292    0.0166
  Pz  O   36   -0.0046    0.0036   -0.0014    0.0001   -0.0011   -0.0015   -0.0451    0.0041
  S   H   37    0.0000   -0.0041    0.0026    0.0005    0.0001    0.0061    0.2226   -0.0273
  S   H   38    0.0008   -0.0038    0.0026    0.0006   -0.0010    0.0059    0.1211   -0.0167
  S   O   39    0.0012    0.0003   -0.0009   -0.0040    0.0316   -0.0075   -0.0050    0.0110
  Px  O   39    0.0006    0.0001   -0.0001   -0.0015    0.0027   -0.0005    0.0000   -0.0014
  Py  O   39    0.0063    0.0005   -0.0007   -0.0091    0.0669   -0.0140   -0.0062    0.0192
  Pz  O   39    0.0069    0.0003   -0.0007   -0.0045    0.0231   -0.0048   -0.0003    0.0031
  S   H   40   -0.0013   -0.0005    0.0010    0.0106   -0.0768    0.0168    0.0084   -0.0232
  S   H   41   -0.0014   -0.0003    0.0014    0.0036   -0.0381    0.0097    0.0081   -0.0176
  S   O   42    0.0005   -0.0045   -0.0010   -0.0002    0.0005    0.0064   -0.0100   -0.0022
  Px  O   42    0.0080   -0.0065   -0.0011   -0.0003    0.0007    0.0062   -0.0132   -0.0013
  Py  O   42    0.0030   -0.0126   -0.0023   -0.0004    0.0010    0.0122   -0.0141   -0.0043
  Pz  O   42    0.0127   -0.0034    0.0019    0.0002    0.0001    0.0022   -0.0004   -0.0015
  S   H   43   -0.0012    0.0046    0.0021    0.0004   -0.0009   -0.0090    0.0196    0.0023
  S   H   44    0.0002    0.0118    0.0019    0.0003   -0.0012   -0.0160    0.0198    0.0064
  S   O   45    0.0020   -0.0012    0.0014   -0.0009   -0.0007    0.0016   -0.0412   -0.0047
  Px  O   45   -0.0036   -0.0020    0.0027    0.0001   -0.0014    0.0013   -0.0453   -0.0033
  Py  O   45   -0.0069    0.0022   -0.0021    0.0012    0.0012   -0.0025    0.0567    0.0065
  Pz  O   45   -0.0094    0.0008    0.0004    0.0009    0.0007    0.0002   -0.0050   -0.0013
  S   H   46   -0.0012    0.0025   -0.0030    0.0011    0.0016   -0.0031    0.0897    0.0091
  S   H   47   -0.0017    0.0010   -0.0013    0.0013    0.0009   -0.0025    0.0554    0.0078
  S   O   48   -0.0004    0.0003   -0.0000    0.0034    0.0066    0.0000   -0.0041   -0.0023
  Px  O   48   -0.0023    0.0002    0.0002   -0.0016    0.0019   -0.0002   -0.0045   -0.0011
  Py  O   48   -0.0060   -0.0002    0.0003   -0.0048    0.0003   -0.0003   -0.0009   -0.0007
  Pz  O   48   -0.0256   -0.0007    0.0002   -0.0075   -0.0128    0.0001    0.0075    0.0039
  S   H   49   -0.0013   -0.0002   -0.0001   -0.0023   -0.0080    0.0000    0.0056    0.0035
  S   H   50    0.0003   -0.0006    0.0002   -0.0073   -0.0124    0.0001    0.0089    0.0044
  S   O   51    0.0003    0.0003   -0.0012   -0.0013    0.0076   -0.0034   -0.0101    0.0056
  Px  O   51   -0.0007    0.0003   -0.0004    0.0006   -0.0072    0.0008   -0.0104   -0.0010
  Py  O   51    0.0105    0.0008   -0.0035   -0.0032    0.0182   -0.0078   -0.0208    0.0118
  Pz  O   51    0.0138    0.0001   -0.0008   -0.0001   -0.0035    0.0006    0.0017   -0.0017
  S   H   52    0.0000   -0.0006    0.0022    0.0018   -0.0091    0.0057    0.0280   -0.0103
  S   H   53   -0.0001   -0.0004    0.0016    0.0025   -0.0193    0.0068    0.0132   -0.0119
  S   O   54   -0.0000    0.0002    0.0007   -0.0043    0.0624   -0.0098   -0.0032    0.0176
  Px  O   54   -0.0008    0.0001    0.0006   -0.0032    0.0370   -0.0057   -0.0017    0.0101
  Py  O   54   -0.0014    0.0001    0.0009   -0.0032    0.0744   -0.0112   -0.0036    0.0243
  Pz  O   54   -0.0021    0.0002    0.0012   -0.0032    0.0331   -0.0042   -0.0002    0.0018
  S   H   55   -0.0000   -0.0002   -0.0010    0.0061   -0.0967    0.0153    0.0054   -0.0316
  S   H   56   -0.0001   -0.0003   -0.0010    0.0058   -0.1066    0.0167    0.0057   -0.0334
  S   O   57    0.0010    0.0005    0.0000    0.0101    0.0118    0.0007   -0.0017   -0.0034
  Px  O   57    0.0231    0.0012   -0.0001    0.0229    0.0247    0.0012   -0.0034   -0.0065
  Py  O   57    0.0078   -0.0003   -0.0018    0.0099    0.0072   -0.0011   -0.0004    0.0005
  Pz  O   57   -0.0149   -0.0003    0.0009   -0.0122   -0.0095    0.0005    0.0000   -0.0003
  S   H   58   -0.0035   -0.0008    0.0012   -0.0295   -0.0317   -0.0003    0.0034    0.0061
  S   H   59   -0.0013   -0.0005   -0.0004   -0.0080   -0.0131   -0.0013    0.0028    0.0062
  S   O   60   -0.0018    0.0036    0.0038    0.0005   -0.0009   -0.0032   -0.1400   -0.0037
  Px  O   60    0.0021    0.0008    0.0008    0.0002   -0.0008   -0.0025   -0.1816   -0.0037
  Py  O   60    0.0001    0.0004    0.0011    0.0001   -0.0002   -0.0011    0.0389   -0.0020
  Pz  O   60    0.0040   -0.0031   -0.0032   -0.0004    0.0006    0.0018    0.1257    0.0001
  S   H   61    0.0027   -0.0061   -0.0061   -0.0009    0.0018    0.0071    0.2598    0.0095
  S   H   62    0.0003   -0.0037   -0.0041   -0.0006    0.0012    0.0036    0.2563    0.0033
  S   O   63    0.0000   -0.0015    0.0010   -0.0004    0.0006   -0.0003   -0.0020   -0.0369
  Px  O   63   -0.0040   -0.0028    0.0001   -0.0000    0.0001   -0.0013   -0.0023   -0.0469
  Py  O   63   -0.0030   -0.0030    0.0025   -0.0008    0.0011   -0.0005   -0.0029   -0.0494
  Pz  O   63    0.0035    0.0002   -0.0011    0.0006   -0.0007   -0.0006    0.0006    0.0035
  S   H   64   -0.0001    0.0022   -0.0026    0.0010   -0.0015    0.0001    0.0035    0.0591
  S   H   65    0.0001    0.0032   -0.0010    0.0003   -0.0006    0.0016    0.0045    0.0917
  S   O   66    0.0004   -0.0004   -0.0043   -0.0007    0.0015    0.0072   -0.0131   -0.2692
  Px  O   66   -0.0009    0.0005    0.0013    0.0002   -0.0007   -0.0029    0.0067    0.1567
  Py  O   66   -0.0029   -0.0001   -0.0093   -0.0013    0.0022    0.0111   -0.0156   -0.2778
  Pz  O   66   -0.0012   -0.0001   -0.0007   -0.0002    0.0011    0.0051   -0.0139   -0.3433
  S   H   67    0.0008    0.0000    0.0093    0.0014   -0.0029   -0.0143    0.0223    0.4154
  S   H   68   -0.0007    0.0009    0.0050    0.0009   -0.0028   -0.0129    0.0294    0.6778
  S   H   69   -0.0249    0.0020    0.0076   -0.0209    0.1960   -0.0230    0.0009   -0.0067
  S   H   70   -0.1102   -0.0024    0.0071    0.0392    0.0398   -0.0006    0.0027   -0.0045


              NET ATOMIC CHARGES AND DIPOLE CONTRIBUTIONS

  ATOM NO.   TYPE          CHARGE      No. of ELECS.   s-Pop       p-Pop       
    1          C           0.510976        3.4890     1.12594     2.36309
    2          O          -0.718354        6.7184     1.88580     4.83256
    3          N          -0.540737        5.5407     1.55745     3.98328
    4          H           0.360948        0.6391     0.63905
    5          C          -0.063649        4.0636     1.05598     3.00767
    6          H           0.132281        0.8677     0.86772
    7          C          -0.340924        4.3409     1.05930     3.28163
    8          H           0.170261        0.8297     0.82974
    9          H           0.183482        0.8165     0.81652
   10          C           0.004295        3.9957     1.05855     2.93715
   11          C          -0.219901        4.2199     1.09183     3.12807
   12          H           0.185913        0.8141     0.81409
   13          C          -0.196372        4.1964     1.09084     3.10554
   14          H           0.162661        0.8373     0.83734
   15          C          -0.192781        4.1928     1.08513     3.10765
   16          H           0.161197        0.8388     0.83880
   17          C          -0.142056        4.1421     1.08389     3.05816
   18          H           0.178777        0.8212     0.82122
   19          C          -0.163164        4.1632     1.09297     3.07020
   20          H           0.175714        0.8243     0.82429
   21          O          -0.786865        6.7869     1.84051     4.94636
   22          H           0.419018        0.5810     0.58098
   23          H           0.371132        0.6289     0.62887
   24          O          -0.798991        6.7990     1.80537     4.99362
   25          H           0.406448        0.5936     0.59355
   26          H           0.383597        0.6164     0.61640
   27          O          -0.790138        6.7901     1.80268     4.98746
   28          H           0.400341        0.5997     0.59966
   29          H           0.430477        0.5695     0.56952
   30          O          -0.858352        6.8584     1.81865     5.03970
   31          H           0.368678        0.6313     0.63132
   32          H           0.508923        0.4911     0.49108
   33          O          -0.838750        6.8387     1.84340     4.99535
   34          H           0.397266        0.6027     0.60273
   35          H           0.439504        0.5605     0.56050
   36          O          -0.853762        6.8538     1.83683     5.01693
   37          H           0.401685        0.5983     0.59831
   38          H           0.425809        0.5742     0.57419
   39          O          -0.748427        6.7484     1.84083     4.90760
   40          H           0.362260        0.6377     0.63774
   41          H           0.392334        0.6077     0.60767
   42          O          -0.790350        6.7903     1.84381     4.94653
   43          H           0.397835        0.6022     0.60216
   44          H           0.384040        0.6160     0.61596
   45          O          -0.833461        6.8335     1.81294     5.02052
   46          H           0.378279        0.6217     0.62172
   47          H           0.423028        0.5770     0.57697
   48          O          -0.723634        6.7236     1.84795     4.87569
   49          H           0.400412        0.5996     0.59959
   50          H           0.334320        0.6657     0.66568
   51          O          -0.793488        6.7935     1.85712     4.93637
   52          H           0.425917        0.5741     0.57408
   53          H           0.353544        0.6465     0.64646
   54          O          -0.793750        6.7937     1.82818     4.96557
   55          H           0.338575        0.6614     0.66143
   56          H           0.461628        0.5384     0.53837
   57          O          -0.809506        6.8095     1.84490     4.96460
   58          H           0.405645        0.5944     0.59436
   59          H           0.381889        0.6181     0.61811
   60          O          -0.786829        6.7868     1.83539     4.95144
   61          H           0.406301        0.5937     0.59370
   62          H           0.377836        0.6222     0.62216
   63          O          -0.806968        6.8070     1.84185     4.96512
   64          H           0.367237        0.6328     0.63276
   65          H           0.436345        0.5637     0.56365
   66          O          -0.788638        6.7886     1.83106     4.95758
   67          H           0.402806        0.5972     0.59719
   68          H           0.383843        0.6162     0.61616
   69          H           0.188463        0.8115     0.81154
   70          H           0.197925        0.8021     0.80207
 DIPOLE           X         Y         Z       TOTAL
 POINT-CHG.    13.029    23.294    -8.722    28.079
 HYBRID         0.879     1.328    -0.201     1.605
 SUM           13.907    24.622    -8.924    29.653


          ATOMIC ORBITAL ELECTRON POPULATIONS

     Atom    s        px        py        pz   
    1  C   1.12594   0.82307   0.78886   0.75115
    2  O   1.88580   1.84554   1.53516   1.45186
    3  N   1.55745   1.15273   1.50840   1.32215
    4  H   0.63905
    5  C   1.05598   0.94579   0.97329   1.08859
    6  H   0.86772
    7  C   1.05930   1.21441   1.01430   1.05291
    8  H   0.82974
    9  H   0.81652
   10  C   1.05855   0.98426   0.98081   0.97208
   11  C   1.09183   1.10636   1.00676   1.01496
   12  H   0.81409
   13  C   1.09084   1.03640   1.02532   1.04382
   14  H   0.83734
   15  C   1.08513   0.99334   1.06480   1.04950
   16  H   0.83880
   17  C   1.08389   1.02703   1.01084   1.02030
   18  H   0.82122
   19  C   1.09297   1.07962   0.99597   0.99460
   20  H   0.82429
   21  O   1.84051   1.47043   1.95927   1.51666
   22  H   0.58098
   23  H   0.62887
   24  O   1.80537   1.64038   1.60763   1.74561
   25  H   0.59355
   26  H   0.61640
   27  O   1.80268   1.67482   1.59378   1.71887
   28  H   0.59966
   29  H   0.56952
   30  O   1.81865   1.86463   1.44980   1.72528
   31  H   0.63132
   32  H   0.49108
   33  O   1.84340   1.75983   1.54391   1.69162
   34  H   0.60273
   35  H   0.56050
   36  O   1.83683   1.74672   1.61105   1.65916
   37  H   0.59831
   38  H   0.57419
   39  O   1.84083   1.77161   1.48541   1.65058
   40  H   0.63774
   41  H   0.60767
   42  O   1.84381   1.55982   1.54149   1.84523
   43  H   0.60216
   44  H   0.61596
   45  O   1.81294   1.55271   1.64807   1.81973
   46  H   0.62172
   47  H   0.57697
   48  O   1.84795   1.83421   1.47510   1.56638
   49  H   0.59959
   50  H   0.66568
   51  O   1.85712   1.46477   1.49097   1.98063
   52  H   0.57408
   53  H   0.64646
   54  O   1.82818   1.69241   1.58701   1.68614
   55  H   0.66143
   56  H   0.53837
   57  O   1.84490   1.53039   1.88470   1.54951
   58  H   0.59436
   59  H   0.61811
   60  O   1.83539   1.52676   1.69289   1.73178
   61  H   0.59370
   62  H   0.62216
   63  O   1.84185   1.61525   1.63940   1.71047
   64  H   0.63276
   65  H   0.56365
   66  O   1.83106   1.91450   1.51365   1.52943
   67  H   0.59719
   68  H   0.61616
   69  H   0.81154
   70  H   0.80207


          SIGMA-PI BOND-ORDER MATRIX

                 S-SIGMA    P-SIGMA      P-PI     S-SIGMA    P-SIGMA      P-PI 
                  C  1       C  1       C  1       O  2       O  2       O  2
------------------------------------------------------------------------------
 S-SIGMA  C  1   0.951640
 P-SIGMA  C  1   0.000000   1.770002
   P-PI   C  1   0.000000   0.000000   1.023679
 S-SIGMA  O  2   0.019468   0.116435   0.000033   0.145150
 P-SIGMA  O  2   0.268658   0.536097   0.004260   0.000000   0.889403
   P-PI   O  2   0.008462   0.002145   0.576150   0.000000   0.000000   0.733184
 S-SIGMA  N  3   0.040741   0.172529   0.002546   0.000545   0.009006   0.012393
 P-SIGMA  N  3   0.203732   0.404043   0.002547   0.000114   0.015020   0.007598
   P-PI   N  3   0.000571   0.000135   0.407571   0.001096   0.000671   0.108679
 S-SIGMA  H  4   0.002932   0.006424   0.006952   0.000055   0.012018   0.003111
 S-SIGMA  C  5   0.000096   0.000658   0.000155   0.000124   0.000000   0.000671
 P-SIGMA  C  5   0.000459   0.010097   0.003534   0.000218   0.000694   0.001762
   P-PI   C  5   0.000204   0.000991   0.000600   0.000077   0.001957   0.002124
 S-SIGMA  H  6   0.000138   0.000298   0.001121   0.000000   0.000724   0.000402
 S-SIGMA  C  7   0.000020   0.000065   0.002286   0.000003   0.000015   0.000867
 P-SIGMA  C  7   0.000165   0.000030   0.004932   0.000007   0.000028   0.001205
   P-PI   C  7   0.000020   0.000231   0.002313   0.000008   0.000178   0.001532
 S-SIGMA  H  8   0.000088   0.000224   0.000156   0.000002   0.000011   0.000053
 S-SIGMA  H  9   0.000013   0.000016   0.000124   0.000001   0.000005   0.000018
 S-SIGMA  C 10   0.000002   0.000006   0.000053   0.000000   0.000006   0.000019
 P-SIGMA  C 10   0.000009   0.000007   0.000091   0.000001   0.000001   0.000002
   P-PI   C 10   0.000003   0.000006   0.000111   0.000002   0.000016   0.000087
 S-SIGMA  C 11   0.000001   0.000000   0.000015   0.000011   0.000034   0.000001
 P-SIGMA  C 11   0.000003   0.000010   0.000024   0.000019   0.000018   0.000047
   P-PI   C 11   0.000001   0.000014   0.000220   0.000009   0.000031   0.000090
 S-SIGMA  H 12   0.000009   0.000009   0.000003   0.000000   0.000089   0.000002
 S-SIGMA  C 13   0.000000   0.000000   0.000001   0.000000   0.000000   0.000001
 P-SIGMA  C 13   0.000000   0.000000   0.000002   0.000000   0.000000   0.000001
   P-PI   C 13   0.000001   0.000001   0.000003   0.000001   0.000006   0.000003
[...]
  
  S  C   5   0.00002     0.00876     0.00003    -0.01504     0.00066     0.00013
 PX  C   5  -0.00001    -0.03063    -0.00003     0.00740     0.00014    -0.00004
 PY  C   5  -0.00003     0.01275     0.00006     0.07022    -0.00122    -0.00003
 PZ  C   5  -0.00002    -0.01740     0.00003     0.04230    -0.00050    -0.00009
  
  S  H   6   0.00002     0.01052    -0.00000    -0.01733    -0.00038     0.00027
  
  S  C   7  -0.00009    -0.00243    -0.00004     0.03467    -0.00522    -0.00015
 PX  C   7  -0.00003     0.00172    -0.00003    -0.00461    -0.00169     0.00000
 PY  C   7   0.00010    -0.00142     0.00004     0.04061    -0.00042    -0.00027
 PZ  C   7  -0.00011    -0.00022    -0.00009     0.02016     0.00391    -0.00016
  
  S  H   8  -0.00006    -0.00249     0.00004    -0.00478     0.00320    -0.00003
  
  S  H   9   0.00006     0.00164     0.00001    -0.00345     0.00812     0.00001
  
  S  C  10   0.00050     0.00145    -0.00016    -0.00249     0.00008    -0.00001
 PX  C  10  -0.00057    -0.00061     0.00011    -0.00017    -0.00014     0.00001
 PY  C  10  -0.00039     0.00055     0.00045     0.00597     0.00068     0.00003
 PZ  C  10   0.00017    -0.00273     0.00020     0.00915     0.00061    -0.00004
  
  S  C  11  -0.00039    -0.00244     0.00102     0.00025    -0.00023     0.00018
 PX  C  11  -0.00041     0.00286    -0.00144     0.00030    -0.00018    -0.00029
 PY  C  11   0.00022     0.00120     0.00030    -0.00634    -0.00056     0.00012
 PZ  C  11  -0.00002     0.00142    -0.00014    -0.00665    -0.00038     0.00005
  
  S  H  12  -0.00041     0.00355    -0.00034     0.00011    -0.00004    -0.00002
  
  S  C  13   0.00685     0.00040     0.00035    -0.00016     0.00003     0.00003
 PX  C  13  -0.00614    -0.00002    -0.00030    -0.00012    -0.00005    -0.00003
 PY  C  13  -0.00382     0.00003    -0.00003    -0.00136    -0.00009     0.00001
 PZ  C  13   0.00434    -0.00123     0.00040    -0.00119    -0.00018     0.00009
  
  S  H  14  -0.01439     0.00015    -0.00022     0.00018    -0.00002    -0.00002
  
  S  C  15  -0.00039    -0.00009    -0.00003    -0.00008     0.00000     0.00000
 PX  C  15   0.00040     0.00016     0.00004     0.00074     0.00005    -0.00002
 PY  C  15  -0.00047    -0.00035     0.00009     0.00356     0.00033    -0.00003
 PZ  C  15   0.00035    -0.00043     0.00012     0.00358     0.00032    -0.00004
  
  S  H  16  -0.00065     0.00013    -0.00004     0.00006     0.00001    -0.00001
  
  S  C  17   0.00015    -0.00020     0.00011     0.00049    -0.00010     0.00001
 PX  C  17  -0.00009     0.00040    -0.00020    -0.00137    -0.00019    -0.00003
 PY  C  17  -0.00011    -0.00001    -0.00000    -0.00245    -0.00030     0.00002
 PZ  C  17   0.00000     0.00010    -0.00006    -0.00314    -0.00026     0.00002
  
  S  H  18   0.00011    -0.00013    -0.00004     0.00031     0.00005    -0.00001
  
  S  C  19   0.00051    -0.00005     0.00009     0.00004     0.00001     0.00001
 PX  C  19  -0.00054     0.00026    -0.00012    -0.00044    -0.00001    -0.00003
 PY  C  19  -0.00033     0.00081    -0.00016    -0.00098     0.00000    -0.00004
 PZ  C  19   0.00062     0.00073    -0.00017    -0.00128    -0.00005    -0.00004
  
  S  H  20  -0.00014    -0.00007    -0.00001     0.00010     0.00001    -0.00000
  
  S  O  21  -0.00000    -0.00041     0.00000    -0.00040    -0.00000     0.00001
 PX  O  21   0.00000     0.00046    -0.00000     0.00032     0.00001    -0.00001
 PY  O  21   0.00000     0.00032    -0.00000     0.00003     0.00000    -0.00001
 PZ  O  21  -0.00000    -0.00081     0.00001    -0.00068    -0.00000     0.00001
  
  S  H  22   0.00000     0.00091    -0.00001     0.00173     0.00000    -0.00001
  
  S  H  23   0.00000     0.00056    -0.00001     0.00072     0.00000    -0.00001
  
  S  O  24  -0.00024    -0.00417     0.00945    -0.00014     0.00001     0.00109
 PX  O  24   0.00043    -0.00186    -0.01036    -0.00015     0.00000    -0.00070
 PY  O  24  -0.00038    -0.00698     0.01065    -0.00045     0.00001     0.00214
 PZ  O  24  -0.00016     0.00449     0.00331     0.00040    -0.00001    -0.00017
  
  S  H  25   0.00107     0.00146    -0.03298    -0.00009    -0.00001    -0.00145
  
  S  H  26   0.00036     0.01939    -0.01437     0.00047    -0.00002    -0.00221
  
  S  O  27   0.00000     0.00000     0.00000     0.00001    -0.00002    -0.00000
 PX  O  27   0.00000     0.00000    -0.00000    -0.00000     0.00002     0.00000
 PY  O  27  -0.00000     0.00000     0.00000     0.00001    -0.00001    -0.00000
 PZ  O  27   0.00000     0.00000     0.00000     0.00000     0.00002    -0.00000
  
  S  H  28  -0.00000    -0.00000    -0.00000    -0.00000     0.00002     0.00000
  
  S  H  29  -0.00000    -0.00000    -0.00000    -0.00002     0.00002     0.00000
  
  S  O  30   0.00000    -0.00001    -0.00000     0.00011     0.00000    -0.00017
 PX  O  30   0.00000     0.00002     0.00001    -0.00001    -0.00000     0.00014
 PY  O  30  -0.00000     0.00002    -0.00001    -0.00007    -0.00000    -0.00001
 PZ  O  30  -0.00000     0.00001    -0.00000    -0.00013    -0.00001     0.00011
  
  S  H  31  -0.00000     0.00003     0.00000    -0.00020    -0.00001     0.00025
  
  S  H  32  -0.00000    -0.00001     0.00000    -0.00022    -0.00001     0.00020
  
  S  O  33   0.00001     0.00000     0.00000    -0.00001    -0.00001    -0.00000
 PX  O  33  -0.00001    -0.00001     0.00000     0.00001     0.00001     0.00000
 PY  O  33   0.00001     0.00000     0.00000     0.00000    -0.00001    -0.00000
 PZ  O  33  -0.00001    -0.00001     0.00000     0.00002     0.00001    -0.00000
  
  S  H  34  -0.00001    -0.00000    -0.00000     0.00001     0.00001     0.00000
  
  S  H  35  -0.00002    -0.00001     0.00000     0.00003     0.00002     0.00000
  
  S  O  36  -0.00000    -0.00001     0.00000     0.00003    -0.00030    -0.00000
 PX  O  36   0.00000     0.00001     0.00000    -0.00001     0.00001    -0.00000
 PY  O  36  -0.00000    -0.00002     0.00000     0.00006    -0.00052    -0.00000
 PZ  O  36  -0.00000     0.00001     0.00000    -0.00005     0.00026     0.00000
  
  S  H  37   0.00000     0.00001    -0.00000    -0.00004     0.00033     0.00000
  
  S  H  38   0.00000     0.00002    -0.00000    -0.00013     0.00125     0.00000
  
  S  O  39  -0.00000    -0.00059     0.00001     0.00178    -0.00050     0.00000
 PX  O  39  -0.00000    -0.00031     0.00000     0.00077     0.00012     0.00000
 PY  O  39  -0.00000    -0.00163     0.00001     0.00333    -0.00092     0.00001
 PZ  O  39  -0.00000    -0.00097     0.00001     0.00200    -0.00016     0.00001
  
  S  H  40   0.00000     0.00193    -0.00002    -0.00928     0.00150    -0.00001
  
  S  H  41   0.00000     0.00038    -0.00000    -0.00118     0.00116    -0.00000
  
  S  O  42   0.00001    -0.00000     0.00001    -0.00001    -0.00011     0.00000
 PX  O  42   0.00000     0.00000     0.00000     0.00000    -0.00009    -0.00000
 PY  O  42   0.00003    -0.00000     0.00002    -0.00001    -0.00019     0.00000
 PZ  O  42   0.00002    -0.00001     0.00001     0.00001    -0.00004     0.00000
  
  S  H  43  -0.00001    -0.00000    -0.00000     0.00000     0.00021     0.00000
  
  S  H  44  -0.00003     0.00002    -0.00002     0.00005     0.00040    -0.00000
  
  S  O  45  -0.00000    -0.00011    -0.00003     0.00035     0.00001    -0.00150
 PX  O  45   0.00000     0.00021     0.00000     0.00014     0.00000     0.00009
 PY  O  45  -0.00000     0.00009     0.00001    -0.00046    -0.00001     0.00221
 PZ  O  45  -0.00000     0.00001     0.00000     0.00008    -0.00000    -0.00115
  
  S  H  46  -0.00000     0.00004     0.00006    -0.00086    -0.00002     0.00228
  
  S  H  47   0.00001     0.00018     0.00004    -0.00082    -0.00002     0.00557
  
  S  O  48  -0.00000    -0.00199    -0.00090     0.00031     0.00001     0.01148
 PX  O  48   0.00000    -0.00460    -0.00052    -0.00011     0.00002     0.85057
 PY  O  48   0.00000     0.00112    -0.00115    -0.00099    -0.00000     0.17627
 PZ  O  48   0.00000     0.00456     0.00123    -0.00105    -0.00003     0.48781
  
  S  H  49   0.00000     0.00014     0.00306     0.00008    -0.00001    -0.00038
  
  S  H  50   0.00000     0.01213     0.00201    -0.00048    -0.00004     0.00103
  
  S  O  51  -0.00000    -0.00006    -0.00000     0.00026    -0.00029    -0.00000
 PX  O  51  -0.00000     0.00008    -0.00000    -0.00018    -0.10150    -0.00000
 PY  O  51  -0.00000    -0.00019    -0.00000     0.00057     0.15770    -0.00000
 PZ  O  51  -0.00000     0.00003    -0.00000    -0.00004     0.98219    -0.00000
  
  S  H  52   0.00000     0.00006     0.00000    -0.00045    -0.00014     0.00000
  
  S  H  53   0.00000     0.00014    -0.00000    -0.00072    -0.00012     0.00000
  
  S  O  54  -0.00000    -0.00138     0.00001     0.00022    -0.00005     0.00002
 PX  O  54  -0.00000    -0.00075     0.00001     0.00026    -0.00003     0.00001
 PY  O  54  -0.00000    -0.00135     0.00001    -0.00004     0.00003     0.00001
 PZ  O  54  -0.00000    -0.00195     0.00002    -0.00037    -0.00000     0.00003
  
  S  H  55   0.00000     0.00195    -0.00002    -0.00082     0.00006    -0.00002
  
  S  H  56   0.00000     0.00261    -0.00002    -0.00000     0.00007    -0.00002
  
  S  O  57  -0.00002     0.00657     0.00295     0.00177     0.00000     0.01655
 PX  O  57  -0.00004     0.01121    -0.14809     0.00405     0.00001     0.02917
 PY  O  57   0.00002     0.00558     0.88785     0.00184     0.00000     0.01083
 PZ  O  57  -0.00001    -0.00711     0.43373    -0.00259    -0.00000    -0.01247
  
  S  H  58   0.00002    -0.03509     0.00022    -0.00667    -0.00001    -0.07390
  
  S  H  59   0.00005    -0.00407     0.00078    -0.00126    -0.00000    -0.01934
  
  S  O  60   0.00001    -0.00000     0.00000     0.00001     0.00000    -0.00002
 PX  O  60   0.00001     0.00000    -0.00000    -0.00001    -0.00000     0.00000
 PY  O  60  -0.00001    -0.00000    -0.00000     0.00001     0.00000    -0.00001
 PZ  O  60  -0.00001     0.00000    -0.00000    -0.00001     0.00000     0.00001
  
  S  H  61  -0.00001     0.00001    -0.00000    -0.00002    -0.00000     0.00003
  
  S  H  62  -0.00001     0.00000    -0.00000    -0.00001     0.00000     0.00003
  
  S  O  63  -0.00156    -0.00017     0.00033    -0.00002     0.00000     0.00004
 PX  O  63  -0.49762     0.00002    -0.00005    -0.00001     0.00000    -0.00001
 PY  O  63   0.49686    -0.00037     0.00077    -0.00004     0.00000     0.00011
 PZ  O  63   0.71076     0.00027    -0.00054     0.00003    -0.00000    -0.00008
  
  S  H  64   0.00049     0.00055    -0.00095     0.00004    -0.00001    -0.00011
  
  S  H  65   0.00017     0.00011    -0.00020     0.00002    -0.00000    -0.00002
  
  S  O  66   0.00011    -0.00000     0.00000    -0.00002    -0.00000    -0.00000
 PX  O  66  -0.00005     0.00000    -0.00000     0.00000     0.00000    -0.00000
 PY  O  66   0.00015    -0.00000     0.00000    -0.00005    -0.00000    -0.00000
 PZ  O  66   0.00009    -0.00000     0.00000     0.00000     0.00000     0.00000
  
  S  H  67  -0.00028     0.00001    -0.00000     0.00006     0.00001     0.00000
  
  S  H  68  -0.00029     0.00001    -0.00000     0.00002     0.00000    -0.00000
  
  S  H  69  -0.00001     0.05642     0.00028    -0.00951    -0.00001    -0.00007
  
  S  H  70  -0.00000    -0.00318    -0.00000    -0.01893     0.00012     0.00006




    ROOT NO.   91          92          93

           -12.27315   -12.25135   -12.16025
  
  
  S  C   1   0.00060    -0.00042    -0.00062
 PX  C   1   0.00201    -0.00363    -0.00199
 PY  C   1   0.00233    -0.00503    -0.00211
 PZ  C   1   0.00171    -0.00203    -0.00155
  
  S  O   2  -0.00002    -0.00044    -0.00001
 PX  O   2  -0.00070     0.00063     0.00069
 PY  O   2  -0.00055     0.00063     0.00068
 PZ  O   2  -0.00077     0.00140     0.00086
  
  S  N   3  -0.00154     0.00312     0.00196
 PX  N   3  -0.00143     0.00283     0.00189
 PY  N   3   0.00202    -0.00184    -0.00298
 PZ  N   3  -0.00036     0.00117     0.00039
  
  S  H   4   0.00156    -0.00300    -0.00198
  
  S  C   5   0.00958    -0.02235    -0.01228
 PX  C   5  -0.00082     0.00232     0.00176
 PY  C   5  -0.01281     0.02217     0.01568
 PZ  C   5  -0.00602     0.01070     0.00591
  
  S  H   6  -0.00014     0.00790     0.00062
  
  S  C   7  -0.00314     0.00738     0.00427
 PX  C   7  -0.00102    -0.00036     0.00063
 PY  C   7  -0.00369     0.02593     0.00031
 PZ  C   7  -0.00220     0.01862    -0.00055
  
  S  H   8  -0.00645     0.00928     0.00919
  
  S  H   9  -0.00554     0.01006     0.00429
  
  S  C  10   0.00448    -0.00535    -0.00802
 PX  C  10   0.00425    -0.00635    -0.00547
 PY  C  10  -0.11966     0.44227     0.16606
 PZ  C  10  -0.11579     0.43863     0.16598
  
  S  C  11   0.00122     0.00954    -0.00143
 PX  C  11   0.00968     0.03618    -0.00662
 PY  C  11   0.11600     0.47348    -0.09210
 PZ  C  11   0.12162     0.48743    -0.09809
  
  S  H  12   0.00244     0.00214    -0.00238
  
  S  C  13  -0.01425    -0.00194     0.00280
 PX  C  13   0.04922     0.02066    -0.01541
 PY  C  13   0.44697     0.16542    -0.11643
 PZ  C  13   0.46459     0.17476    -0.12396
  
  S  H  14  -0.00343    -0.00330     0.00263
  
  S  C  15  -0.00412    -0.00256     0.00471
 PX  C  15   0.10270    -0.02169     0.03054
 PY  C  15   0.47615    -0.10941     0.13744
 PZ  C  15   0.46196    -0.10180     0.13073
  
  S  H  16  -0.00252     0.00218    -0.00250
  
  S  C  17  -0.01273     0.00766     0.06030
 PX  C  17  -0.01494     0.01751     0.07308
 PY  C  17  -0.09290     0.11783     0.39216
 PZ  C  17  -0.11918     0.14472     0.52514
  
  S  H  18   0.00535    -0.00344    -0.01087
  
  S  C  19  -0.00569     0.01114    -0.02754
 PX  C  19   0.03815    -0.03174     0.11528
 PY  C  19   0.13466    -0.09991     0.39243
 PZ  C  19   0.17151    -0.13273     0.50146
  
  S  H  20   0.00238    -0.00345     0.00374
  
  S  O  21  -0.00001     0.00001     0.00001
 PX  O  21   0.00002    -0.00004    -0.00003
 PY  O  21   0.00000    -0.00000    -0.00000
 PZ  O  21  -0.00001     0.00002     0.00001
  
  S  H  22   0.00003    -0.00007    -0.00004
  
  S  H  23  -0.00000     0.00002    -0.00000
  
  S  O  24  -0.00177    -0.00349     0.00137
 PX  O  24  -0.00012     0.00058     0.00032
 PY  O  24  -0.00279    -0.00495     0.00199
 PZ  O  24   0.00113     0.00159    -0.00083
  
  S  H  25   0.00373     0.00605    -0.00279
  
  S  H  26   0.00491     0.01557    -0.00423
  
  S  O  27  -0.00004     0.00002    -0.00001
 PX  O  27   0.00002    -0.00003     0.00001
 PY  O  27  -0.00004    -0.00001    -0.00020
 PZ  O  27   0.00003    -0.00004    -0.00021
  
  S  H  28   0.00010    -0.00004    -0.00015
  
  S  H  29   0.00004     0.00000     0.00053
  
  S  O  30  -0.00118     0.00070    -0.00557
 PX  O  30  -0.00045     0.00055    -0.00268
 PY  O  30   0.00317    -0.00210     0.00761
 PZ  O  30   0.00053     0.00006     0.00346
  
  S  H  31   0.00526    -0.00410     0.02478
  
  S  H  32  -0.00002    -0.00027     0.01027
  
  S  O  33   0.00017    -0.00013     0.00071
 PX  O  33  -0.00049     0.00031    -0.00094
 PY  O  33  -0.00022     0.00017    -0.00028
 PZ  O  33  -0.00047     0.00034    -0.00127
  
  S  H  34  -0.00003     0.00007    -0.00096
  
  S  H  35  -0.00091     0.00092    -0.00471
  
  S  O  36  -0.00022     0.00018     0.00086
 PX  O  36  -0.00007    -0.00009     0.00088
 PY  O  36  -0.00035     0.00029     0.00121
 PZ  O  36  -0.00020     0.00038    -0.00003
  
  S  H  37   0.00076    -0.00035    -0.00377
  
  S  H  38   0.00054    -0.00027    -0.00259
  
  S  O  39   0.00007    -0.00013    -0.00008
 PX  O  39   0.00002     0.00000    -0.00003
 PY  O  39   0.00009    -0.00020    -0.00011
 PZ  O  39   0.00007    -0.00006    -0.00011
  
  S  H  40  -0.00019     0.00051     0.00017
  
  S  H  41  -0.00015     0.00032     0.00015
  
  S  O  42   0.00723     0.00382     0.00459
 PX  O  42   0.00319     0.00018     0.00291
 PY  O  42   0.01576     0.00879     0.00888
 PZ  O  42   0.00532     0.00362     0.00280
  
  S  H  43  -0.00781    -0.00145    -0.00770
  
  S  H  44  -0.04052    -0.02535    -0.02286
  
  S  O  45  -0.00022    -0.00098    -0.00185
 PX  O  45   0.00026    -0.00040    -0.00259
 PY  O  45   0.00035     0.00140     0.00222
 PZ  O  45  -0.00043    -0.00034     0.00029
  
  S  H  46  -0.00020     0.00248     0.00838
  
  S  H  47   0.00154     0.00330     0.00229
  
  S  O  48  -0.00002    -0.00021    -0.00002
 PX  O  48  -0.00003    -0.00025    -0.00005
 PY  O  48   0.00002     0.00013     0.00002
 PZ  O  48   0.00005     0.00046     0.00006
  
  S  H  49   0.00002     0.00012     0.00000
  
  S  H  50   0.00006     0.00092     0.00002
  
  S  O  51   0.00010    -0.00016    -0.00006
 PX  O  51  -0.00001    -0.00001     0.00008
 PY  O  51   0.00024    -0.00030    -0.00022
 PZ  O  51   0.00004     0.00005    -0.00007
  
  S  H  52  -0.00022     0.00058    -0.00008
  
  S  H  53  -0.00023     0.00049     0.00015
  
  S  O  54  -0.00003     0.00006     0.00004
 PX  O  54  -0.00002     0.00003     0.00002
 PY  O  54  -0.00005     0.00009     0.00006
 PZ  O  54  -0.00005     0.00008     0.00007
  
  S  H  55   0.00006    -0.00012    -0.00007
  
  S  H  56   0.00009    -0.00020    -0.00010
  
  S  O  57  -0.00007    -0.00023     0.00005
 PX  O  57  -0.00014    -0.00046     0.00010
 PY  O  57   0.00011     0.00004    -0.00009
 PZ  O  57  -0.00003     0.00006     0.00004
  
  S  H  58   0.00007     0.00065    -0.00010
  
  S  H  59   0.00016     0.00043    -0.00015
  
  S  O  60  -0.00050     0.00048    -0.00130
 PX  O  60  -0.00002     0.00028    -0.00126
 PY  O  60   0.00004    -0.00012    -0.00006
 PZ  O  60   0.00052    -0.00047     0.00078
  
  S  H  61   0.00121    -0.00141     0.00362
  
  S  H  62   0.00102    -0.00126     0.00380
  
  S  O  63  -0.00094    -0.00042     0.00031
 PX  O  63  -0.00065    -0.00025     0.00020
 PY  O  63  -0.00134    -0.00084     0.00057
 PZ  O  63   0.00042     0.00041    -0.00023
  
  S  H  64   0.00328     0.00147    -0.00110
  
  S  H  65   0.00314     0.00060    -0.00076
  
  S  O  66  -0.00115     0.00026    -0.00026
 PX  O  66   0.00002     0.00001    -0.00002
 PY  O  66  -0.00216     0.00060    -0.00080
 PZ  O  66  -0.00006    -0.00001     0.00017
  
  S  H  67   0.00667    -0.00144     0.00111
  
  S  H  68   0.00101    -0.00020    -0.00001
  
  S  H  69  -0.00070     0.00081     0.00077
  
  S  H  70  -0.00129     0.00247     0.00258

          BONDING CONTRIBUTION OF EACH M.O.

  1.6417  1.7861  1.9139  1.8838  0.0401  1.6704  1.7033  1.7643  1.6481  1.6868
  1.6273  1.6884  1.6792  1.9933  1.6765  0.0001  1.9959  0.0364  0.0019  0.0001
  0.0226  1.6454  1.7228  1.6390  1.6354  1.7226  1.7045  1.6605  0.0139  0.0184
  1.6517  1.9967  1.9943  0.0010  1.6853  0.0060  1.6214  1.6880  0.0005  1.9964
  0.0578  1.7182  0.0012  0.0007  1.7219  1.7670  1.5701  1.6127  0.0479  1.6654
  1.7043  1.9995  0.0019  1.8877  1.6172  0.0082  1.4759  1.9956  1.6176  1.6706
  1.9393  1.6300  1.9503  1.9429  1.9537  1.9282  1.9428  1.9694  1.9926  1.9359
  1.9535  1.1120  0.0008  0.0815  0.0103  0.0000  0.0304  0.0162  0.0619  0.0157
  0.0023  0.0014  0.0027  0.0091  0.0020  0.2707  0.0106  0.9571  0.0008  0.0470
  1.9719  2.0073  2.0078 -2.0141 -1.9930 -1.9930 -1.9338 -1.9982 -1.7144 -1.7163
 -1.7453 -1.6973 -1.8992 -1.8446 -1.7084 -1.7211 -1.7228 -1.9537 -1.7828 -1.8840
 -1.7036 -1.6970 -1.9145 -1.7878 -1.9662 -1.7887 -1.7901 -1.7803 -1.7490 -1.9147
 -2.0109 -1.7266 -1.8429 -1.7331 -1.8935 -1.9286 -1.9418 -1.9077 -1.7666 -1.8194
 -1.8398 -1.6890 -1.8601 -1.8529 -1.6801 -1.7388 -1.8687 -1.8200 -1.6254 -1.8873
 -1.6767 -1.7126 -1.6520 -1.7998 -1.7171 -1.8038 -1.7120 -1.7114 -1.7361 -1.7124
 -1.6825

           DATA FOR GRAPH WRITTEN TO DISK

 **********************
 *                    *
 * JOB ENDED NORMALLY *
 *                    *
 **********************



 TOTAL JOB TIME:             0.81 SECONDS

 == MOPAC DONE ==
