 *******************************************************************************
 ** Site#: 34139        For non-commercial use only    Version 20.015L 64BITS **
 *******************************************************************************
 ** Cite this program as: MOPAC2016, Version: 20.015L, James J. P. Stewart,   **
 ** Stewart Computational Chemistry, web: HTTP://OpenMOPAC.net. Days left: 276**
 *******************************************************************************
 **                                                                           **
 **                                MOPAC2016                                  **
 **                                                                           **
 *******************************************************************************

                              PM7 CALCULATION RESULTS

 *******************************************************************************
 *  CALCULATION DONE:                                Tue Apr 14 14:51:39 2020  *
 *  PM7        - The PM7 Hamiltonian to be used
 *  QMMM       - Generate energies and gradients for use in MM codes
 *  DIPOLE     - PRINT DIPOLE INSTEAD OF ENERGY IN TRAJECTORIES
 *  GEO-OK     - OVERRIDE INTERATOMIC DISTANCE AND OTHER SAFETY CHECKS
 *
 *
 *
 *                 CHARGE ON SYSTEM = 0
 *
 *
 *
 *  LET        - OVERRIDE SOME SAFETY CHECKS
 *  XYZ        - CARTESIAN COORDINATE SYSTEM TO BE USED
 *  FORCE      - FORCE CALCULATION SPECIFIED
 *  1SCF       - DO 1 SCF AND THEN STOP 
 *  T=         - A TIME OF      2.0 MINUTES REQUESTED
 *  DUMP=N     - RESTART FILE WRITTEN EVERY  7200.000 SECONDS
 *  CUTOFF=    - CUTOFF FOR NDDO AND DIPOLE INTERACTIONS =  9.00A
 *  AUX        - OUTPUT AUXILIARY INFORMATION
 *  GRADIENTS  - ALL GRADIENTS TO BE PRINTED
 *  VECTORS    - FINAL EIGENVECTORS TO BE PRINTED
 *  EIGEN      - CONVERT LMO's INTO EIGENVECTORS
 *  LARGE      - EXPANDED OUTPUT TO BE PRINTED
 *  AIGOUT     - IN ARC FILE, INCLUDE AB-INITIO GEOMETRY
 *  GRAPH      - GENERATE FILE FOR GRAPHICS
 *  ALLVEC     - PRINT ALL EIGENVECTORS
 *  LOCALIZE   - LOCALIZED ORBITALS TO BE PRINTED
 *  PI         - BONDS MATRIX, SPLIT INTO SIGMA-PI-DELL COMPONENTS, TO BE PRINTED
 *******************************************************************************
PM7 XYZ T=2M 1SCF LOCALIZE AIGOUT GRAPH GRAPHF LARGE DIPOLE PI FORCE CUTOFF=9.0 AUX LET GRAD QMMM GEO-OK EIGEN VECTORS ALLVEC CHARGE=0
 Test System

   ATOM   CHEMICAL          X               Y               Z
  NUMBER   SYMBOL      (ANGSTROMS)     (ANGSTROMS)     (ANGSTROMS)
 
     1       C         -3.53626100  *   0.59320800  *   0.57459300  *
     2       O         -3.68276300  *  -0.51783100  *   1.06167000  *
     3       N         -2.32196600  *   1.03127200  *   0.13341500  *
     4       H         -2.24530500  *   1.99045000  *  -0.25182500  *
     5       C         -1.06897500  *   0.29530600  *   0.37525600  *
     6       H         -1.03600200  *  -0.03713800  *   1.44195900  *
     7       C         -1.07699300  *  -0.97583700  *  -0.53309700  *
     8       H         -1.96558500  *  -1.61531400  *  -0.28149800  *
     9       H         -1.23014900  *  -0.63500200  *  -1.57851200  *
    10       C          0.17936300  *  -1.81185100  *  -0.45618300  *
    11       C          0.99978400  *  -1.92014900  *  -1.57820500  *
    12       H          0.77990600  *  -1.38133900  *  -2.50842000  *
    13       C          2.15046100  *  -2.72405500  *  -1.51658800  *
    14       H          2.80701000  *  -2.82379700  *  -2.38311300  *
    15       C          2.46794900  *  -3.39163600  *  -0.33034900  *
    16       H          3.35697700  *  -4.03924700  *  -0.28114800  *
    17       C          0.52624100  *  -2.43352800  *   0.72551400  *
    18       H         -0.09120100  *  -2.31596700  *   1.62752500  *
    19       C          1.65983800  *  -3.23309700  *   0.79097200  *
    20       H          1.92552800  *  -3.75399000  *   1.71751500  *
    21       O          4.44149600  *  -6.38008700  *  -1.57104600  *
    22       H          5.26169500  *  -5.99291600  *  -1.19341600  *
    23       H          4.68370700  *  -7.31848100  *  -1.63245000  *
    24       O         -3.62998200  *  -4.13034900  *   1.31708600  *
    25       H         -3.41740800  *  -4.18156100  *   0.33717000  *
    26       H         -4.22408400  *  -3.36661400  *   1.40052900  *
    27       O         -0.34084500  *  -5.64808700  *   0.34123600  *
    28       H         -1.11083000  *  -6.20028400  *   0.67541500  *
    29       H         -0.21791000  *  -5.00589000  *   1.05787700  *
    30       O         -1.94590000  *   0.60119100  *  -3.93693200  *
    31       H         -1.25799600  *   1.26331000  *  -3.66650700  *
    32       H         -2.59324100  *   1.16473900  *  -4.39737700  *
    33       O         -5.72623700  *  -2.02486600  *   2.38332500  *
    34       H         -6.51947400  *  -2.46192300  *   2.79392600  *
    35       H         -5.42026000  *  -1.41728300  *   3.08248100  *
    36       O          0.60706500  *  -2.82931900  *   4.91529500  *
    37       H         -0.09406800  *  -3.07664300  *   4.31482900  *
    38       H          0.08944800  *  -2.40755100  *   5.67300300  *
    39       O         -2.30589800  *   3.77261300  *  -2.44005600  *
    40       H         -2.84468500  *   3.59264400  *  -3.23041100  *
    41       H         -2.93913300  *   3.78386700  *  -1.67683400  *
    42       O         -0.84678400  *   0.43616600  *   3.60212000  *
    43       H         -0.98754900  *   1.33607500  *   3.95945800  *
    44       H          0.10316400  *   0.23264100  *   3.83601300  *
    45       O         -1.73594500  *  -3.81129900  *   3.18747500  *
    46       H         -2.28750600  *  -4.12227400  *   2.45261800  *
    47       H         -2.06710400  *  -2.88546800  *   3.32864100  *
    48       O         -1.98652000  *  -2.99498000  *  -3.20091600  *
    49       H         -1.87187900  *  -3.23740200  *  -4.12928300  *
    50       H         -2.07647200  *  -2.02348200  *  -3.25552500  *
    51       O         -2.77846900  *  -1.40985600  *   3.42247300  *
    52       H         -3.13163900  *  -1.15632000  *   2.55046600  *
    53       H         -2.10836900  *  -0.70662400  *   3.60293700  *
    54       O         -0.72370600  *   4.46956700  *   0.80392100  *
    55       H         -1.71053300  *   4.23907000  *   0.64337500  *
    56       H         -0.30152700  *   3.97339100  *   0.09716700  *
    57       H         -4.39410700  *   1.25282900  *   0.44382600  *
    58       H         -0.21940100  *   0.94120400  *   0.15358400  *
 


          CARTESIAN COORDINATES 

    NO.       ATOM           X           Y           Z

     1         C         -3.5363      0.5932      0.5746
     2         O         -3.6828     -0.5178      1.0617
     3         N         -2.3220      1.0313      0.1334
     4         H         -2.2453      1.9905     -0.2518
     5         C         -1.0690      0.2953      0.3753
     6         H         -1.0360     -0.0371      1.4420
     7         C         -1.0770     -0.9758     -0.5331
     8         H         -1.9656     -1.6153     -0.2815
     9         H         -1.2301     -0.6350     -1.5785
    10         C          0.1794     -1.8119     -0.4562
    11         C          0.9998     -1.9201     -1.5782
    12         H          0.7799     -1.3813     -2.5084
    13         C          2.1505     -2.7241     -1.5166
    14         H          2.8070     -2.8238     -2.3831
    15         C          2.4679     -3.3916     -0.3303
    16         H          3.3570     -4.0392     -0.2811
    17         C          0.5262     -2.4335      0.7255
    18         H         -0.0912     -2.3160      1.6275
    19         C          1.6598     -3.2331      0.7910
    20         H          1.9255     -3.7540      1.7175
    21         O          4.4415     -6.3801     -1.5710
    22         H          5.2617     -5.9929     -1.1934
    23         H          4.6837     -7.3185     -1.6324
    24         O         -3.6300     -4.1303      1.3171
    25         H         -3.4174     -4.1816      0.3372
    26         H         -4.2241     -3.3666      1.4005
    27         O         -0.3408     -5.6481      0.3412
    28         H         -1.1108     -6.2003      0.6754
    29         H         -0.2179     -5.0059      1.0579
    30         O         -1.9459      0.6012     -3.9369
    31         H         -1.2580      1.2633     -3.6665
    32         H         -2.5932      1.1647     -4.3974
    33         O         -5.7262     -2.0249      2.3833
    34         H         -6.5195     -2.4619      2.7939
    35         H         -5.4203     -1.4173      3.0825
    36         O          0.6071     -2.8293      4.9153
    37         H         -0.0941     -3.0766      4.3148
    38         H          0.0894     -2.4076      5.6730
    39         O         -2.3059      3.7726     -2.4401
    40         H         -2.8447      3.5926     -3.2304
    41         H         -2.9391      3.7839     -1.6768
    42         O         -0.8468      0.4362      3.6021
    43         H         -0.9875      1.3361      3.9595
    44         H          0.1032      0.2326      3.8360
    45         O         -1.7359     -3.8113      3.1875
    46         H         -2.2875     -4.1223      2.4526
    47         H         -2.0671     -2.8855      3.3286
    48         O         -1.9865     -2.9950     -3.2009
    49         H         -1.8719     -3.2374     -4.1293
    50         H         -2.0765     -2.0235     -3.2555
    51         O         -2.7785     -1.4099      3.4225
    52         H         -3.1316     -1.1563      2.5505
    53         H         -2.1084     -0.7066      3.6029
    54         O         -0.7237      4.4696      0.8039
    55         H         -1.7105      4.2391      0.6434
    56         H         -0.3015      3.9734      0.0972
    57         H         -4.3941      1.2528      0.4438
    58         H         -0.2194      0.9412      0.1536

 General Reference for PM7:
 "Optimization of Parameters for Semiempirical Methods VI: More Modifications to the 
 NDDO Approximations and Re-optimization of Parameters", J. J. P. Stewart, J. Mol. Mod., 1:32, 19 (2013)
 http://www.springerlink.com/openurl.asp?genre=article&id=doi:10.1007/s00894-012-1667-x

           Empirical Formula: C9 H35 N O13  =    58 atoms



      MOLECULAR POINT GROUP   :   C1  


      RHF CALCULATION, NO. OF DOUBLY OCCUPIED LEVELS = 77


 -------------------------------------------------------------------------------
 PM7 XYZ T=2M 1SCF LOCALIZE AIGOUT GRAPH GRAPHF LARGE DIPOLE PI FORCE CUTOFF=9.0 AUX LET GRAD QMMM GEO-OK EIGEN VECTORS ALLVEC CHARGE=0
 Test System



     1SCF WAS SPECIFIED, SO BFGS WAS NOT USED                 
     SCF FIELD WAS ACHIEVED                                   


                              PM7 CALCULATION
                                                       MOPAC2016 (Version: 20.015L)
                                                       Tue Apr 14 14:51:39 2020
                                                       No. of days remaining = 276




          FINAL HEAT OF FORMATION =       -969.68086 KCAL/MOL =   -4057.14473 KJ/MOL


          TOTAL ENERGY            =      -5616.79057 EV
          ELECTRONIC ENERGY       =     -40134.32643 EV  POINT GROUP:     C1  
          CORE-CORE REPULSION     =      34517.53586 EV
          COSMO AREA              =        446.68 SQUARE ANGSTROMS
          COSMO VOLUME            =        559.86 CUBIC ANGSTROMS

          GRADIENT NORM           =        154.15971 = 20.24216 PER ATOM
          IONIZATION POTENTIAL    =          9.397957 EV
          HOMO LUMO ENERGIES (EV) =         -9.398  0.303
          NO. OF FILLED LEVELS    =         77
          MOLECULAR WEIGHT        =        365.3744

          MOLECULAR DIMENSIONS (Angstroms)

            Atom       Atom       Distance
            H    41    H    23    13.46743
            H    38    H    32    10.05740
            H    34    H    56     8.81771


          SCF CALCULATIONS        =          1
 
          WALL-CLOCK TIME         =          0.312 SECONDS
          COMPUTATION TIME        =          0.156 SECONDS

          LARGEST ATOMIC GRADIENTS

          Atom     Label                     Cartesian Gradients           Cartesian Coordinates       |Gradient|
                                           X          Y          Z        X          Y          Z

            54       O                  39.526     20.964     16.425   -0.72371    4.46957    0.80392     47.661
            55       H                 -33.613    -15.016    -12.410   -1.71053    4.23907    0.64338     38.850
            36       O                  19.277    -20.679    -24.753    0.60707   -2.82932    4.91530     37.575
            27       O                  23.830     11.749    -23.305   -0.34085   -5.64809    0.34124     35.341
            10       C                  16.049    -26.609     10.762    0.17936   -1.81185   -0.45618     32.885
             5       C                  22.617     21.806      5.062   -1.06898    0.29531    0.37526     31.822
            24       O                   0.708      0.261     31.524   -3.62998   -4.13035    1.31709     31.533
            42       O                 -21.566    -19.252    -12.347   -0.84678    0.43617    3.60212     31.435
            33       O                  22.645      0.936    -21.674   -5.72624   -2.02487    2.38333     31.360
            38       H                 -17.734     13.889     18.469    0.08945   -2.40755    5.67300     29.129



       FINAL  POINT  AND  DERIVATIVES

   PARAMETER     ATOM    TYPE            VALUE        GRADIENT
      1          1  C    CARTESIAN X    -3.536261     -9.400677  KCAL/ANGSTROM
      2          1  C    CARTESIAN Y     0.593208      8.613080  KCAL/ANGSTROM
      3          1  C    CARTESIAN Z     0.574593      2.049860  KCAL/ANGSTROM
      4          2  O    CARTESIAN X    -3.682763     -0.926970  KCAL/ANGSTROM
      5          2  O    CARTESIAN Y    -0.517831     -0.014168  KCAL/ANGSTROM
      6          2  O    CARTESIAN Z     1.061670     -4.376612  KCAL/ANGSTROM
      7          3  N    CARTESIAN X    -2.321966      0.867438  KCAL/ANGSTROM
      8          3  N    CARTESIAN Y     1.031272    -26.745058  KCAL/ANGSTROM
      9          3  N    CARTESIAN Z     0.133415     -3.193049  KCAL/ANGSTROM
     10          4  H    CARTESIAN X    -2.245305     -6.814611  KCAL/ANGSTROM
     11          4  H    CARTESIAN Y     1.990450     17.133271  KCAL/ANGSTROM
     12          4  H    CARTESIAN Z    -0.251825     -0.564071  KCAL/ANGSTROM
     13          5  C    CARTESIAN X    -1.068975     22.616630  KCAL/ANGSTROM
     14          5  C    CARTESIAN Y     0.295306     21.805656  KCAL/ANGSTROM
     15          5  C    CARTESIAN Z     0.375256      5.062288  KCAL/ANGSTROM
     16          6  H    CARTESIAN X    -1.036002     -3.281349  KCAL/ANGSTROM
     17          6  H    CARTESIAN Y    -0.037138     -0.036788  KCAL/ANGSTROM
     18          6  H    CARTESIAN Z     1.441959      0.179673  KCAL/ANGSTROM
     19          7  C    CARTESIAN X    -1.076993     -5.911918  KCAL/ANGSTROM
     20          7  C    CARTESIAN Y    -0.975837     -4.085402  KCAL/ANGSTROM
     21          7  C    CARTESIAN Z    -0.533097      2.147181  KCAL/ANGSTROM
     22          8  H    CARTESIAN X    -1.965585     -6.690068  KCAL/ANGSTROM
     23          8  H    CARTESIAN Y    -1.615314     -3.212476  KCAL/ANGSTROM
     24          8  H    CARTESIAN Z    -0.281498      1.093742  KCAL/ANGSTROM
     25          9  H    CARTESIAN X    -1.230149      2.774798  KCAL/ANGSTROM
     26          9  H    CARTESIAN Y    -0.635002      4.068004  KCAL/ANGSTROM
     27          9  H    CARTESIAN Z    -1.578512      0.614499  KCAL/ANGSTROM
     28         10  C    CARTESIAN X     0.179363     16.048836  KCAL/ANGSTROM
     29         10  C    CARTESIAN Y    -1.811851    -26.608972  KCAL/ANGSTROM
     30         10  C    CARTESIAN Z    -0.456183     10.762435  KCAL/ANGSTROM
     31         11  C    CARTESIAN X     0.999784    -16.378861  KCAL/ANGSTROM
     32         11  C    CARTESIAN Y    -1.920149      6.152110  KCAL/ANGSTROM
     33         11  C    CARTESIAN Z    -1.578205      6.232143  KCAL/ANGSTROM
     34         12  H    CARTESIAN X     0.779906      1.512879  KCAL/ANGSTROM
     35         12  H    CARTESIAN Y    -1.381339      5.469329  KCAL/ANGSTROM
     36         12  H    CARTESIAN Z    -2.508420     -6.870653  KCAL/ANGSTROM
     37         13  C    CARTESIAN X     2.150461      6.376795  KCAL/ANGSTROM
     38         13  C    CARTESIAN Y    -2.724055     -5.307019  KCAL/ANGSTROM
     39         13  C    CARTESIAN Z    -1.516588     -3.927421  KCAL/ANGSTROM
     40         14  H    CARTESIAN X     2.807010      4.255143  KCAL/ANGSTROM
     41         14  H    CARTESIAN Y    -2.823797      0.109924  KCAL/ANGSTROM
     42         14  H    CARTESIAN Z    -2.383113     -1.895845  KCAL/ANGSTROM
     43         15  C    CARTESIAN X     2.467949     -6.533555  KCAL/ANGSTROM
     44         15  C    CARTESIAN Y    -3.391636     -0.780109  KCAL/ANGSTROM
     45         15  C    CARTESIAN Z    -0.330349      6.730971  KCAL/ANGSTROM
     46         16  H    CARTESIAN X     3.356977      6.968655  KCAL/ANGSTROM
     47         16  H    CARTESIAN Y    -4.039247     -3.453772  KCAL/ANGSTROM
     48         16  H    CARTESIAN Z    -0.281148      1.970112  KCAL/ANGSTROM
     49         17  C    CARTESIAN X     0.526241      2.288563  KCAL/ANGSTROM
     50         17  C    CARTESIAN Y    -2.433528      7.519360  KCAL/ANGSTROM
     51         17  C    CARTESIAN Z     0.725514    -21.333780  KCAL/ANGSTROM
     52         18  H    CARTESIAN X    -0.091201      0.192859  KCAL/ANGSTROM
     53         18  H    CARTESIAN Y    -2.315967      1.247565  KCAL/ANGSTROM
     54         18  H    CARTESIAN Z     1.627525      4.036815  KCAL/ANGSTROM
     55         19  C    CARTESIAN X     1.659838     -6.258663  KCAL/ANGSTROM
     56         19  C    CARTESIAN Y    -3.233097      6.212175  KCAL/ANGSTROM
     57         19  C    CARTESIAN Z     0.790972     -3.327889  KCAL/ANGSTROM
     58         20  H    CARTESIAN X     1.925528      2.048192  KCAL/ANGSTROM
     59         20  H    CARTESIAN Y    -3.753990     -2.186173  KCAL/ANGSTROM
     60         20  H    CARTESIAN Z     1.717515      1.086973  KCAL/ANGSTROM
     61         21  O    CARTESIAN X     4.441496    -25.651522  KCAL/ANGSTROM
     62         21  O    CARTESIAN Y    -6.380087      7.630902  KCAL/ANGSTROM
     63         21  O    CARTESIAN Z    -1.571046     -6.806562  KCAL/ANGSTROM
     64         22  H    CARTESIAN X     5.261695     14.525705  KCAL/ANGSTROM
     65         22  H    CARTESIAN Y    -5.992916     -1.816535  KCAL/ANGSTROM
     66         22  H    CARTESIAN Z    -1.193416      4.724775  KCAL/ANGSTROM
     67         23  H    CARTESIAN X     4.683707     10.339850  KCAL/ANGSTROM
     68         23  H    CARTESIAN Y    -7.318481     -6.392450  KCAL/ANGSTROM
     69         23  H    CARTESIAN Z    -1.632450      2.072066  KCAL/ANGSTROM
     70         24  O    CARTESIAN X    -3.629982      0.707773  KCAL/ANGSTROM
     71         24  O    CARTESIAN Y    -4.130349      0.260728  KCAL/ANGSTROM
     72         24  O    CARTESIAN Z     1.317086     31.523916  KCAL/ANGSTROM
     73         25  H    CARTESIAN X    -3.417408      1.869930  KCAL/ANGSTROM
     74         25  H    CARTESIAN Y    -4.181561     -1.869581  KCAL/ANGSTROM
     75         25  H    CARTESIAN Z     0.337170    -22.574630  KCAL/ANGSTROM
     76         26  H    CARTESIAN X    -4.224084     -2.215929  KCAL/ANGSTROM
     77         26  H    CARTESIAN Y    -3.366614      1.310011  KCAL/ANGSTROM
     78         26  H    CARTESIAN Z     1.400529     -7.467581  KCAL/ANGSTROM
     79         27  O    CARTESIAN X    -0.340845     23.829524  KCAL/ANGSTROM
     80         27  O    CARTESIAN Y    -5.648087     11.749453  KCAL/ANGSTROM
     81         27  O    CARTESIAN Z     0.341236    -23.304598  KCAL/ANGSTROM
     82         28  H    CARTESIAN X    -1.110830    -19.476068  KCAL/ANGSTROM
     83         28  H    CARTESIAN Y    -6.200284    -11.715056  KCAL/ANGSTROM
     84         28  H    CARTESIAN Z     0.675415     12.634507  KCAL/ANGSTROM
     85         29  H    CARTESIAN X    -0.217910     -2.751236  KCAL/ANGSTROM
     86         29  H    CARTESIAN Y    -5.005890     -0.818393  KCAL/ANGSTROM
     87         29  H    CARTESIAN Z     1.057877      8.577165  KCAL/ANGSTROM
     88         30  O    CARTESIAN X    -1.945900     -4.507371  KCAL/ANGSTROM
     89         30  O    CARTESIAN Y     0.601191    -26.602483  KCAL/ANGSTROM
     90         30  O    CARTESIAN Z    -3.936932      1.662012  KCAL/ANGSTROM
     91         31  H    CARTESIAN X    -1.257996      8.146485  KCAL/ANGSTROM
     92         31  H    CARTESIAN Y     1.263310     15.857709  KCAL/ANGSTROM
     93         31  H    CARTESIAN Z    -3.666507      0.782351  KCAL/ANGSTROM
     94         32  H    CARTESIAN X    -2.593241     -4.080077  KCAL/ANGSTROM
     95         32  H    CARTESIAN Y     1.164739     13.071767  KCAL/ANGSTROM
     96         32  H    CARTESIAN Z    -4.397377     -3.304183  KCAL/ANGSTROM
     97         33  O    CARTESIAN X    -5.726237     22.645382  KCAL/ANGSTROM
     98         33  O    CARTESIAN Y    -2.024866      0.936089  KCAL/ANGSTROM
     99         33  O    CARTESIAN Z     2.383325    -21.673840  KCAL/ANGSTROM
    100         34  H    CARTESIAN X    -6.519474    -17.810857  KCAL/ANGSTROM
    101         34  H    CARTESIAN Y    -2.461923     -5.008618  KCAL/ANGSTROM
    102         34  H    CARTESIAN Z     2.793926     11.682584  KCAL/ANGSTROM
    103         35  H    CARTESIAN X    -5.420260     -6.117538  KCAL/ANGSTROM
    104         35  H    CARTESIAN Y    -1.417283      7.583440  KCAL/ANGSTROM
    105         35  H    CARTESIAN Z     3.082481     12.618960  KCAL/ANGSTROM
    106         36  O    CARTESIAN X     0.607065     19.276757  KCAL/ANGSTROM
    107         36  O    CARTESIAN Y    -2.829319    -20.678888  KCAL/ANGSTROM
    108         36  O    CARTESIAN Z     4.915295    -24.752548  KCAL/ANGSTROM
    109         37  H    CARTESIAN X    -0.094068     -1.573768  KCAL/ANGSTROM
    110         37  H    CARTESIAN Y    -3.076643      8.937310  KCAL/ANGSTROM
    111         37  H    CARTESIAN Z     4.314829      8.015006  KCAL/ANGSTROM
    112         38  H    CARTESIAN X     0.089448    -17.734284  KCAL/ANGSTROM
    113         38  H    CARTESIAN Y    -2.407551     13.888893  KCAL/ANGSTROM
    114         38  H    CARTESIAN Z     5.673003     18.469026  KCAL/ANGSTROM
    115         39  O    CARTESIAN X    -2.305898     23.415185  KCAL/ANGSTROM
    116         39  O    CARTESIAN Y     3.772613     10.829652  KCAL/ANGSTROM
    117         39  O    CARTESIAN Z    -2.440056    -13.305526  KCAL/ANGSTROM
    118         40  H    CARTESIAN X    -2.844685     -8.062100  KCAL/ANGSTROM
    119         40  H    CARTESIAN Y     3.592644     -5.382835  KCAL/ANGSTROM
    120         40  H    CARTESIAN Z    -3.230411     -7.166503  KCAL/ANGSTROM
    121         41  H    CARTESIAN X    -2.939133    -12.245436  KCAL/ANGSTROM
    122         41  H    CARTESIAN Y     3.783867     -5.035022  KCAL/ANGSTROM
    123         41  H    CARTESIAN Z    -1.676834     19.695874  KCAL/ANGSTROM
    124         42  O    CARTESIAN X    -0.846784    -21.565696  KCAL/ANGSTROM
    125         42  O    CARTESIAN Y     0.436166    -19.251890  KCAL/ANGSTROM
    126         42  O    CARTESIAN Z     3.602120    -12.347376  KCAL/ANGSTROM
    127         43  H    CARTESIAN X    -0.987549      2.382142  KCAL/ANGSTROM
    128         43  H    CARTESIAN Y     1.336075     12.366616  KCAL/ANGSTROM
    129         43  H    CARTESIAN Z     3.959458      5.721493  KCAL/ANGSTROM
    130         44  H    CARTESIAN X     0.103164     18.001120  KCAL/ANGSTROM
    131         44  H    CARTESIAN Y     0.232641      5.007551  KCAL/ANGSTROM
    132         44  H    CARTESIAN Z     3.836013      5.658401  KCAL/ANGSTROM
    133         45  O    CARTESIAN X    -1.735945     -3.977427  KCAL/ANGSTROM
    134         45  O    CARTESIAN Y    -3.811299     -6.637370  KCAL/ANGSTROM
    135         45  O    CARTESIAN Z     3.187475      2.855114  KCAL/ANGSTROM
    136         46  H    CARTESIAN X    -2.287506      1.996270  KCAL/ANGSTROM
    137         46  H    CARTESIAN Y    -4.122274     -2.929528  KCAL/ANGSTROM
    138         46  H    CARTESIAN Z     2.452618     -5.876393  KCAL/ANGSTROM
    139         47  H    CARTESIAN X    -2.067104      1.570125  KCAL/ANGSTROM
    140         47  H    CARTESIAN Y    -2.885468     10.745270  KCAL/ANGSTROM
    141         47  H    CARTESIAN Z     3.328641      2.404384  KCAL/ANGSTROM
    142         48  O    CARTESIAN X    -1.986520      3.671907  KCAL/ANGSTROM
    143         48  O    CARTESIAN Y    -2.994980    -16.593583  KCAL/ANGSTROM
    144         48  O    CARTESIAN Z    -3.200916     15.709325  KCAL/ANGSTROM
    145         49  H    CARTESIAN X    -1.871879     -0.514332  KCAL/ANGSTROM
    146         49  H    CARTESIAN Y    -3.237402      6.463090  KCAL/ANGSTROM
    147         49  H    CARTESIAN Z    -4.129283     -7.803648  KCAL/ANGSTROM
    148         50  H    CARTESIAN X    -2.076472     -1.812096  KCAL/ANGSTROM
    149         50  H    CARTESIAN Y    -2.023482      7.462808  KCAL/ANGSTROM
    150         50  H    CARTESIAN Z    -3.255525     -8.532393  KCAL/ANGSTROM
    151         51  O    CARTESIAN X    -2.778469     -3.856590  KCAL/ANGSTROM
    152         51  O    CARTESIAN Y    -1.409856    -19.729176  KCAL/ANGSTROM
    153         51  O    CARTESIAN Z     3.422473     -5.114566  KCAL/ANGSTROM
    154         52  H    CARTESIAN X    -3.131639     -0.702306  KCAL/ANGSTROM
    155         52  H    CARTESIAN Y    -1.156320      6.602095  KCAL/ANGSTROM
    156         52  H    CARTESIAN Z     2.550466      1.873104  KCAL/ANGSTROM
    157         53  H    CARTESIAN X    -2.108369      3.440761  KCAL/ANGSTROM
    158         53  H    CARTESIAN Y    -0.706624     10.256697  KCAL/ANGSTROM
    159         53  H    CARTESIAN Z     3.602937      1.838352  KCAL/ANGSTROM
    160         54  O    CARTESIAN X    -0.723706     39.525680  KCAL/ANGSTROM
    161         54  O    CARTESIAN Y     4.469567     20.963886  KCAL/ANGSTROM
    162         54  O    CARTESIAN Z     0.803921     16.424673  KCAL/ANGSTROM
    163         55  H    CARTESIAN X    -1.710533    -33.613442  KCAL/ANGSTROM
    164         55  H    CARTESIAN Y     4.239070    -15.015531  KCAL/ANGSTROM
    165         55  H    CARTESIAN Z     0.643375    -12.409711  KCAL/ANGSTROM
    166         56  H    CARTESIAN X    -0.301527     -7.763660  KCAL/ANGSTROM
    167         56  H    CARTESIAN Y     3.973391     -7.531040  KCAL/ANGSTROM
    168         56  H    CARTESIAN Z     0.097167     -4.816052  KCAL/ANGSTROM
    169         57  H    CARTESIAN X    -4.394107      7.746320  KCAL/ANGSTROM
    170         57  H    CARTESIAN Y     1.252829     -2.449813  KCAL/ANGSTROM
    171         57  H    CARTESIAN Z     0.443826      4.404850  KCAL/ANGSTROM
    172         58  H    CARTESIAN X    -0.219401    -10.807763  KCAL/ANGSTROM
    173         58  H    CARTESIAN Y     0.941204     -2.363560  KCAL/ANGSTROM
    174         58  H    CARTESIAN Z     0.153584      1.436353  KCAL/ANGSTROM




   ATOM   CHEMICAL          X               Y               Z
  NUMBER   SYMBOL      (ANGSTROMS)     (ANGSTROMS)     (ANGSTROMS)
 
     1       C         -3.53626100  *   0.59320800  *   0.57459300  *
     2       O         -3.68276300  *  -0.51783100  *   1.06167000  *
     3       N         -2.32196600  *   1.03127200  *   0.13341500  *
     4       H         -2.24530500  *   1.99045000  *  -0.25182500  *
     5       C         -1.06897500  *   0.29530600  *   0.37525600  *
     6       H         -1.03600200  *  -0.03713800  *   1.44195900  *
     7       C         -1.07699300  *  -0.97583700  *  -0.53309700  *
     8       H         -1.96558500  *  -1.61531400  *  -0.28149800  *
     9       H         -1.23014900  *  -0.63500200  *  -1.57851200  *
    10       C          0.17936300  *  -1.81185100  *  -0.45618300  *
    11       C          0.99978400  *  -1.92014900  *  -1.57820500  *
    12       H          0.77990600  *  -1.38133900  *  -2.50842000  *
    13       C          2.15046100  *  -2.72405500  *  -1.51658800  *
    14       H          2.80701000  *  -2.82379700  *  -2.38311300  *
    15       C          2.46794900  *  -3.39163600  *  -0.33034900  *
    16       H          3.35697700  *  -4.03924700  *  -0.28114800  *
    17       C          0.52624100  *  -2.43352800  *   0.72551400  *
    18       H         -0.09120100  *  -2.31596700  *   1.62752500  *
    19       C          1.65983800  *  -3.23309700  *   0.79097200  *
    20       H          1.92552800  *  -3.75399000  *   1.71751500  *
    21       O          4.44149600  *  -6.38008700  *  -1.57104600  *
    22       H          5.26169500  *  -5.99291600  *  -1.19341600  *
    23       H          4.68370700  *  -7.31848100  *  -1.63245000  *
    24       O         -3.62998200  *  -4.13034900  *   1.31708600  *
    25       H         -3.41740800  *  -4.18156100  *   0.33717000  *
    26       H         -4.22408400  *  -3.36661400  *   1.40052900  *
    27       O         -0.34084500  *  -5.64808700  *   0.34123600  *
    28       H         -1.11083000  *  -6.20028400  *   0.67541500  *
    29       H         -0.21791000  *  -5.00589000  *   1.05787700  *
    30       O         -1.94590000  *   0.60119100  *  -3.93693200  *
    31       H         -1.25799600  *   1.26331000  *  -3.66650700  *
    32       H         -2.59324100  *   1.16473900  *  -4.39737700  *
    33       O         -5.72623700  *  -2.02486600  *   2.38332500  *
    34       H         -6.51947400  *  -2.46192300  *   2.79392600  *
    35       H         -5.42026000  *  -1.41728300  *   3.08248100  *
    36       O          0.60706500  *  -2.82931900  *   4.91529500  *
    37       H         -0.09406800  *  -3.07664300  *   4.31482900  *
    38       H          0.08944800  *  -2.40755100  *   5.67300300  *
    39       O         -2.30589800  *   3.77261300  *  -2.44005600  *
    40       H         -2.84468500  *   3.59264400  *  -3.23041100  *
    41       H         -2.93913300  *   3.78386700  *  -1.67683400  *
    42       O         -0.84678400  *   0.43616600  *   3.60212000  *
    43       H         -0.98754900  *   1.33607500  *   3.95945800  *
    44       H          0.10316400  *   0.23264100  *   3.83601300  *
    45       O         -1.73594500  *  -3.81129900  *   3.18747500  *
    46       H         -2.28750600  *  -4.12227400  *   2.45261800  *
    47       H         -2.06710400  *  -2.88546800  *   3.32864100  *
    48       O         -1.98652000  *  -2.99498000  *  -3.20091600  *
    49       H         -1.87187900  *  -3.23740200  *  -4.12928300  *
    50       H         -2.07647200  *  -2.02348200  *  -3.25552500  *
    51       O         -2.77846900  *  -1.40985600  *   3.42247300  *
    52       H         -3.13163900  *  -1.15632000  *   2.55046600  *
    53       H         -2.10836900  *  -0.70662400  *   3.60293700  *
    54       O         -0.72370600  *   4.46956700  *   0.80392100  *
    55       H         -1.71053300  *   4.23907000  *   0.64337500  *
    56       H         -0.30152700  *   3.97339100  *   0.09716700  *
    57       H         -4.39410700  *   1.25282900  *   0.44382600  *
    58       H         -0.21940100  *   0.94120400  *   0.15358400  *

                             CARTESIAN COORDINATES

   1    C       -3.536261000     0.593208000     0.574593000
   2    O       -3.682763000    -0.517831000     1.061670000
   3    N       -2.321966000     1.031272000     0.133415000
   4    H       -2.245305000     1.990450000    -0.251825000
   5    C       -1.068975000     0.295306000     0.375256000
   6    H       -1.036002000    -0.037138000     1.441959000
   7    C       -1.076993000    -0.975837000    -0.533097000
   8    H       -1.965585000    -1.615314000    -0.281498000
   9    H       -1.230149000    -0.635002000    -1.578512000
  10    C        0.179363000    -1.811851000    -0.456183000
  11    C        0.999784000    -1.920149000    -1.578205000
  12    H        0.779906000    -1.381339000    -2.508420000
  13    C        2.150461000    -2.724055000    -1.516588000
  14    H        2.807010000    -2.823797000    -2.383113000
  15    C        2.467949000    -3.391636000    -0.330349000
  16    H        3.356977000    -4.039247000    -0.281148000
  17    C        0.526241000    -2.433528000     0.725514000
  18    H       -0.091201000    -2.315967000     1.627525000
  19    C        1.659838000    -3.233097000     0.790972000
  20    H        1.925528000    -3.753990000     1.717515000
  21    O        4.441496000    -6.380087000    -1.571046000
  22    H        5.261695000    -5.992916000    -1.193416000
  23    H        4.683707000    -7.318481000    -1.632450000
  24    O       -3.629982000    -4.130349000     1.317086000
  25    H       -3.417408000    -4.181561000     0.337170000
  26    H       -4.224084000    -3.366614000     1.400529000
  27    O       -0.340845000    -5.648087000     0.341236000
  28    H       -1.110830000    -6.200284000     0.675415000
  29    H       -0.217910000    -5.005890000     1.057877000
  30    O       -1.945900000     0.601191000    -3.936932000
  31    H       -1.257996000     1.263310000    -3.666507000
  32    H       -2.593241000     1.164739000    -4.397377000
  33    O       -5.726237000    -2.024866000     2.383325000
  34    H       -6.519474000    -2.461923000     2.793926000
  35    H       -5.420260000    -1.417283000     3.082481000
  36    O        0.607065000    -2.829319000     4.915295000
  37    H       -0.094068000    -3.076643000     4.314829000
  38    H        0.089448000    -2.407551000     5.673003000
  39    O       -2.305898000     3.772613000    -2.440056000
  40    H       -2.844685000     3.592644000    -3.230411000
  41    H       -2.939133000     3.783867000    -1.676834000
  42    O       -0.846784000     0.436166000     3.602120000
  43    H       -0.987549000     1.336075000     3.959458000
  44    H        0.103164000     0.232641000     3.836013000
  45    O       -1.735945000    -3.811299000     3.187475000
  46    H       -2.287506000    -4.122274000     2.452618000
  47    H       -2.067104000    -2.885468000     3.328641000
  48    O       -1.986520000    -2.994980000    -3.200916000
  49    H       -1.871879000    -3.237402000    -4.129283000
  50    H       -2.076472000    -2.023482000    -3.255525000
  51    O       -2.778469000    -1.409856000     3.422473000
  52    H       -3.131639000    -1.156320000     2.550466000
  53    H       -2.108369000    -0.706624000     3.602937000
  54    O       -0.723706000     4.469567000     0.803921000
  55    H       -1.710533000     4.239070000     0.643375000
  56    H       -0.301527000     3.973391000     0.097167000
  57    H       -4.394107000     1.252829000     0.443826000
  58    H       -0.219401000     0.941204000     0.153584000


           Empirical Formula: C9 H35 N O13  =    58 atoms



      MOLECULAR POINT GROUP   :   C1  


                EIGENVECTORS  


   Root No.       1         2         3         4         5         6         7         8

                 1 A       2 A       3 A       4 A       5 A       6 A       7 A       8 A   

               -36.590   -30.483   -30.134   -29.728   -29.654   -29.396   -29.070   -28.954
  
  S   C    1    0.3111   -0.0255   -0.0012    0.3621    0.0745    0.0234    0.0017   -0.0741
  Px  C    1    0.1879   -0.0063   -0.0001   -0.0821   -0.0208   -0.0105    0.0000    0.0137
  Py  C    1    0.0589   -0.0091    0.0005   -0.2932   -0.0645   -0.0213   -0.0000    0.0417
  Pz  C    1   -0.0605    0.0039   -0.0006    0.1413    0.0313    0.0112   -0.0000   -0.0137
  S   O    2    0.0602   -0.0027   -0.0019    0.7243    0.1577    0.0544    0.0010   -0.0983
  Px  O    2    0.0434    0.0009   -0.0002    0.0318    0.0061    0.0010   -0.0001    0.0030
  Py  O    2    0.0689   -0.0078   -0.0007    0.2733    0.0583    0.0194    0.0009   -0.0586
  Pz  O    2   -0.0364    0.0028    0.0000   -0.1077   -0.0228   -0.0072   -0.0006    0.0410
  S   N    3    0.8179   -0.0341   -0.0006   -0.1357   -0.0372   -0.0192    0.0009    0.0088
  Px  N    3   -0.0377    0.0233    0.0000   -0.0752   -0.0147   -0.0066   -0.0012    0.0254
  Py  N    3   -0.0108   -0.0143    0.0001   -0.0776   -0.0141    0.0020    0.0005    0.0087
  Pz  N    3    0.0343   -0.0030   -0.0007    0.0429    0.0067   -0.0001    0.0001   -0.0054
  S   H    4    0.2443   -0.0130    0.0000   -0.0784   -0.0135    0.0034    0.0003    0.0089
  S   C    5    0.2401    0.0744   -0.0037   -0.0563   -0.0132   -0.0134   -0.0030    0.0313
  Px  C    5   -0.1450    0.0213   -0.0019    0.0083    0.0040    0.0037   -0.0005    0.0006
  Py  C    5    0.0785   -0.0389    0.0019   -0.0363   -0.0088   -0.0020    0.0011    0.0012
  Pz  C    5   -0.0259   -0.0154   -0.0010    0.0195    0.0030    0.0025    0.0005    0.0017
  S   H    6    0.0795    0.0363   -0.0030   -0.0034   -0.0015   -0.0037   -0.0015    0.0217
  S   C    7    0.0759    0.1756   -0.0043   -0.0108    0.0009   -0.0083   -0.0052    0.0156
  Px  C    7   -0.0222    0.0667   -0.0108   -0.0058   -0.0015    0.0004   -0.0013   -0.0035
  Py  C    7    0.0456   -0.0357    0.0047   -0.0137   -0.0020   -0.0033    0.0005    0.0057
  Pz  C    7    0.0207    0.0075   -0.0074    0.0014   -0.0020   -0.0003   -0.0004    0.0062
  S   H    8    0.0364    0.0665    0.0009    0.0085    0.0027   -0.0024   -0.0020    0.0094
  S   H    9    0.0370    0.0727    0.0092   -0.0085    0.0045   -0.0056   -0.0021    0.0050
  S   C   10    0.0142    0.4137   -0.0541   -0.0018   -0.0031    0.0001   -0.0072   -0.0171
  Px  C   10   -0.0084    0.0877   -0.0202    0.0015   -0.0021    0.0030    0.0000   -0.0166
  Py  C   10    0.0085   -0.0529    0.0128   -0.0043    0.0011   -0.0026   -0.0001    0.0077
  Pz  C   10    0.0022    0.0129   -0.0067    0.0018   -0.0007    0.0005   -0.0003    0.0077
  S   C   11    0.0036    0.3558   -0.0489   -0.0008   -0.0032    0.0025   -0.0041   -0.0366
  Px  C   11   -0.0027    0.0116   -0.0081    0.0014   -0.0011    0.0017    0.0013   -0.0082
  Py  C   11    0.0020   -0.0510    0.0111   -0.0017    0.0013   -0.0016   -0.0003    0.0081
  Pz  C   11    0.0014    0.1228   -0.0211    0.0003   -0.0017    0.0011   -0.0016   -0.0079
  S   H   12    0.0026    0.1061   -0.0085   -0.0013    0.0002   -0.0002   -0.0015   -0.0109
  S   C   13    0.0001    0.3250   -0.0553    0.0021   -0.0048    0.0051    0.0005   -0.0436
  Px  C   13   -0.0004   -0.0780    0.0108   -0.0000    0.0007   -0.0006    0.0020    0.0069
  Py  C   13    0.0003    0.0178   -0.0012   -0.0005    0.0001   -0.0002   -0.0015   -0.0015
  Pz  C   13    0.0002    0.1027   -0.0190    0.0011   -0.0017    0.0017    0.0003   -0.0104
  S   H   14   -0.0000    0.0915   -0.0156    0.0006   -0.0014    0.0015    0.0009   -0.0142
  S   C   15    0.0000    0.3232   -0.0592    0.0035   -0.0054    0.0060    0.0041   -0.0381
  Px  C   15   -0.0002   -0.1051    0.0181   -0.0010    0.0015   -0.0015    0.0026    0.0083
  Py  C   15    0.0002    0.0768   -0.0131    0.0005   -0.0011    0.0011   -0.0018   -0.0092
  Pz  C   15    0.0000   -0.0000   -0.0008    0.0005   -0.0001    0.0001   -0.0003    0.0050
  S   H   16   -0.0001    0.0889   -0.0169    0.0011   -0.0016    0.0018    0.0068   -0.0115
  S   C   17    0.0059    0.3731   -0.0613    0.0045   -0.0044    0.0038   -0.0051   -0.0070
  Px  C   17   -0.0032    0.0634   -0.0139    0.0006   -0.0016    0.0020    0.0005   -0.0130
  Py  C   17    0.0035   -0.0016    0.0031   -0.0014    0.0005   -0.0013   -0.0009    0.0005
  Pz  C   17   -0.0012   -0.1174    0.0171    0.0006    0.0013   -0.0006    0.0015    0.0142
  S   H   18    0.0050    0.1116   -0.0179    0.0032   -0.0008    0.0009   -0.0020    0.0135
  S   C   19    0.0006    0.3403   -0.0620    0.0047   -0.0054    0.0059   -0.0006   -0.0212
  Px  C   19   -0.0006   -0.0390    0.0057   -0.0008    0.0002   -0.0001    0.0022   -0.0058
  Py  C   19    0.0006    0.0654   -0.0107    0.0005   -0.0008    0.0006   -0.0014   -0.0052
  Pz  C   19   -0.0001   -0.1067    0.0185   -0.0006    0.0017   -0.0016   -0.0002    0.0149
  S   H   20    0.0002    0.0965   -0.0182    0.0018   -0.0016    0.0019    0.0002   -0.0021
  S   O   21   -0.0000    0.0070   -0.0018    0.0002   -0.0003    0.0006    0.8583    0.0114
  Px  O   21    0.0000    0.0015   -0.0004    0.0000   -0.0001    0.0001    0.2024    0.0027
  Py  O   21   -0.0000    0.0002    0.0000   -0.0000    0.0000   -0.0001   -0.1131   -0.0017
  Pz  O   21   -0.0000    0.0010   -0.0002    0.0000   -0.0000    0.0001    0.0587    0.0007
  S   H   22   -0.0000    0.0036   -0.0008    0.0001   -0.0001    0.0003    0.3134    0.0040
  S   H   23   -0.0000    0.0024   -0.0006    0.0001   -0.0001    0.0002    0.3278    0.0044
  S   O   24    0.0005    0.0122   -0.0007    0.0272    0.0066    0.0040   -0.0052    0.4279
  Px  O   24    0.0001    0.0003   -0.0001   -0.0010   -0.0003   -0.0001    0.0002   -0.0215
  Py  O   24    0.0001    0.0023   -0.0001    0.0054    0.0013    0.0007   -0.0009    0.0735
  Pz  O   24   -0.0001   -0.0017   -0.0001   -0.0028   -0.0007   -0.0004    0.0007   -0.0588
  S   H   25    0.0004    0.0053   -0.0001    0.0092    0.0022    0.0013   -0.0018    0.1436
  S   H   26    0.0002    0.0052   -0.0003    0.0123    0.0030    0.0017   -0.0020    0.1659
  S   O   27    0.0001    0.0606   -0.0130    0.0073   -0.0002    0.0034   -0.0040    0.2417
  Px  O   27   -0.0000   -0.0045    0.0011   -0.0010   -0.0001   -0.0004    0.0005   -0.0327
  Py  O   27    0.0001    0.0093   -0.0017    0.0005   -0.0001    0.0003   -0.0002    0.0103
  Pz  O   27    0.0001    0.0181   -0.0038    0.0020   -0.0000    0.0009   -0.0010    0.0597
  S   H   28    0.0001    0.0198   -0.0042    0.0027    0.0000    0.0012   -0.0014    0.0850
  S   H   29    0.0002    0.0386   -0.0077    0.0035   -0.0002    0.0016   -0.0017    0.0964
  S   O   30    0.0022    0.0183    0.0446   -0.1434    0.7778   -0.3380    0.0006    0.0021
  Px  O   30    0.0004    0.0008   -0.0004    0.0006   -0.0040    0.0010   -0.0000    0.0001
  Py  O   30    0.0007    0.0036    0.0067   -0.0394    0.2116   -0.0880    0.0002    0.0005
  Pz  O   30    0.0006    0.0005   -0.0008    0.0067   -0.0380    0.0165   -0.0001   -0.0000
  S   H   31    0.0022    0.0077    0.0156   -0.0522    0.2779   -0.1153    0.0002    0.0007
  S   H   32    0.0010    0.0065    0.0166   -0.0554    0.2984   -0.1236    0.0003    0.0006
  S   O   33    0.0001    0.0019   -0.0003    0.0255    0.0061    0.0030   -0.0015    0.1278
  Px  O   33   -0.0002    0.0002   -0.0000   -0.0009   -0.0002   -0.0001    0.0000   -0.0036
  Py  O   33   -0.0002    0.0001   -0.0000    0.0023    0.0005    0.0002   -0.0001    0.0039
  Pz  O   33    0.0002    0.0004   -0.0001    0.0072    0.0017    0.0008   -0.0003    0.0295
  S   H   34    0.0001    0.0006   -0.0001    0.0088    0.0021    0.0010   -0.0005    0.0441
  S   H   35    0.0001    0.0011   -0.0002    0.0141    0.0033    0.0015   -0.0007    0.0544
  S   O   36    0.0002    0.0102   -0.0021    0.0113    0.0025    0.0018   -0.0021    0.1517
  Px  O   36   -0.0001   -0.0034    0.0007   -0.0037   -0.0008   -0.0006    0.0006   -0.0458
  Py  O   36    0.0000   -0.0001    0.0000    0.0002    0.0000    0.0000   -0.0000    0.0028
  Pz  O   36   -0.0001   -0.0013    0.0002   -0.0005   -0.0001   -0.0001    0.0001   -0.0037
  S   H   37    0.0002    0.0068   -0.0013    0.0064    0.0014    0.0010   -0.0010    0.0728
  S   H   38    0.0001    0.0034   -0.0007    0.0041    0.0009    0.0006   -0.0007    0.0522
  S   O   39    0.0083   -0.0016    0.0059   -0.1228    0.3153    0.7900   -0.0004   -0.0251
  Px  O   39   -0.0029    0.0005   -0.0016    0.0326   -0.0829   -0.2068    0.0001    0.0066
  Py  O   39   -0.0017    0.0001   -0.0005    0.0065   -0.0169   -0.0319    0.0000    0.0011
  Pz  O   39    0.0033   -0.0004   -0.0004    0.0009   -0.0104   -0.0102    0.0000    0.0018
  S   H   40    0.0031   -0.0004    0.0026   -0.0468    0.1252    0.2888   -0.0001   -0.0096
  S   H   41    0.0094   -0.0010    0.0021   -0.0460    0.1102    0.2789   -0.0001   -0.0072
  S   O   42    0.0044    0.0100   -0.0014    0.0261    0.0060    0.0024   -0.0024    0.1572
  Px  O   42   -0.0002    0.0009   -0.0001   -0.0018   -0.0004   -0.0002   -0.0001    0.0072
  Py  O   42   -0.0001   -0.0001   -0.0000   -0.0010   -0.0002   -0.0001   -0.0001    0.0080
  Pz  O   42   -0.0025   -0.0005   -0.0000    0.0029    0.0007    0.0004   -0.0002    0.0177
  S   H   43    0.0023    0.0034   -0.0005    0.0091    0.0021    0.0009   -0.0009    0.0560
  S   H   44    0.0021    0.0043   -0.0006    0.0081    0.0019    0.0007   -0.0008    0.0521
  S   O   45    0.0009    0.0224   -0.0040    0.0466    0.0108    0.0062   -0.0057    0.4276
  Px  O   45   -0.0002   -0.0034    0.0006   -0.0098   -0.0023   -0.0013    0.0011   -0.0851
  Py  O   45    0.0004    0.0043   -0.0007    0.0094    0.0022    0.0011   -0.0009    0.0625
  Pz  O   45   -0.0002   -0.0045    0.0008   -0.0059   -0.0014   -0.0008    0.0008   -0.0615
  S   H   46    0.0005    0.0110   -0.0019    0.0191    0.0044    0.0026   -0.0024    0.1821
  S   H   47    0.0011    0.0115   -0.0020    0.0267    0.0062    0.0032   -0.0026    0.1868
  S   O   48    0.0018    0.1268    0.8459    0.0122   -0.0438    0.0137    0.0010   -0.0011
  Px  O   48    0.0000    0.0015    0.0047    0.0001   -0.0004    0.0001   -0.0000   -0.0001
  Py  O   48    0.0009    0.0232    0.1335    0.0016   -0.0056    0.0015    0.0001   -0.0001
  Pz  O   48   -0.0001   -0.0273   -0.1937   -0.0028    0.0103   -0.0033   -0.0003    0.0005
  S   H   49    0.0006    0.0483    0.3234    0.0047   -0.0168    0.0053    0.0004   -0.0005
  S   H   50    0.0021    0.0524    0.3119    0.0038   -0.0131    0.0036    0.0002   -0.0002
  S   O   51    0.0071    0.0196   -0.0031    0.1437    0.0330    0.0140   -0.0062    0.4403
  Px  O   51    0.0008    0.0026   -0.0004    0.0075    0.0017    0.0008   -0.0006    0.0413
  Py  O   51    0.0023    0.0028   -0.0004    0.0270    0.0062    0.0024   -0.0009    0.0619
  Pz  O   51   -0.0025   -0.0040    0.0006   -0.0299   -0.0068   -0.0027    0.0010   -0.0708
  S   H   52    0.0081    0.0092   -0.0014    0.0791    0.0178    0.0070   -0.0024    0.1660
  S   H   53    0.0052    0.0088   -0.0014    0.0534    0.0122    0.0051   -0.0024    0.1645
  S   O   54    0.0091   -0.0007    0.0002   -0.0445    0.0187    0.0988   -0.0003    0.1590
  Px  O   54   -0.0024    0.0003   -0.0000    0.0047   -0.0022   -0.0101    0.0000   -0.0129
  Py  O   54   -0.0033    0.0001   -0.0000    0.0085   -0.0033   -0.0174    0.0001   -0.0271
  Pz  O   54   -0.0029    0.0001   -0.0000    0.0099   -0.0042   -0.0214    0.0001   -0.0329
  S   H   55    0.0088   -0.0006    0.0001   -0.0173    0.0075    0.0366   -0.0001    0.0513
  S   H   56    0.0072   -0.0001    0.0001   -0.0197    0.0079    0.0412   -0.0001    0.0638
  S   H   57    0.0853   -0.0105   -0.0003    0.1008    0.0213    0.0082    0.0007   -0.0238
  S   H   58    0.0781    0.0344   -0.0020   -0.0323   -0.0063   -0.0048   -0.0013    0.0145


   Root No.       9        10        11        12        13        14        15        16

                 9 A      10 A      11 A      12 A      13 A      14 A      15 A      16 A   

               -28.925   -28.718   -28.468   -28.273   -28.181   -27.980   -27.617   -27.504
  
  S   C    1    0.0211    0.0333    0.0417    0.0266    0.0069    0.0080    0.0515   -0.0889
  Px  C    1   -0.0112   -0.0040   -0.0075   -0.0037   -0.0004   -0.0059   -0.0027   -0.0254
  Py  C    1   -0.0214   -0.0109   -0.0181   -0.0094    0.0033   -0.0133    0.0039   -0.0829
  Pz  C    1    0.0107    0.0024    0.0027    0.0010   -0.0018    0.0042   -0.0061    0.0322
  S   O    2    0.0502    0.0315    0.0445    0.0234   -0.0020    0.0197    0.0105    0.0674
  Px  O    2   -0.0007   -0.0025   -0.0057   -0.0020   -0.0038   -0.0026   -0.0082    0.0049
  Py  O    2    0.0207    0.0230    0.0291    0.0196    0.0026    0.0120    0.0295   -0.0037
  Pz  O    2   -0.0108   -0.0177   -0.0279   -0.0179   -0.0017   -0.0129   -0.0276   -0.0098
  S   N    3   -0.0191    0.0040    0.0002    0.0011    0.0062   -0.0121    0.0178   -0.1042
  Px  N    3   -0.0034   -0.0173   -0.0186   -0.0136   -0.0069    0.0047   -0.0419    0.1355
  Py  N    3    0.0027    0.0021   -0.0009    0.0005    0.0040   -0.0070    0.0154   -0.0834
  Pz  N    3    0.0002    0.0021    0.0011    0.0012   -0.0004    0.0019    0.0030   -0.0064
  S   H    4    0.0032    0.0009   -0.0011   -0.0002    0.0031   -0.0060    0.0087   -0.0538
  S   C    5   -0.0098   -0.0327   -0.0290   -0.0223   -0.0157    0.0174   -0.0835    0.3225
  Px  C    5    0.0051   -0.0039   -0.0018   -0.0016   -0.0019    0.0041   -0.0077    0.0425
  Py  C    5    0.0001    0.0073    0.0016    0.0025    0.0043   -0.0052    0.0210   -0.1003
  Pz  C    5    0.0007    0.0028   -0.0036   -0.0001   -0.0001    0.0024    0.0124   -0.0557
  S   H    6   -0.0048   -0.0183   -0.0233   -0.0144   -0.0107    0.0164   -0.0354    0.1333
  S   C    7   -0.0054   -0.0419   -0.0154   -0.0194   -0.0177    0.0179   -0.1081    0.4645
  Px  C    7    0.0014   -0.0087   -0.0014   -0.0019   -0.0015    0.0017   -0.0119    0.0590
  Py  C    7   -0.0021   -0.0005   -0.0056   -0.0029   -0.0011    0.0017   -0.0062    0.0158
  Pz  C    7   -0.0017   -0.0026   -0.0050   -0.0025   -0.0023    0.0024   -0.0089    0.0348
  S   H    8   -0.0027   -0.0157   -0.0030   -0.0073   -0.0080    0.0075   -0.0435    0.1835
  S   H    9   -0.0020   -0.0179   -0.0054   -0.0081   -0.0071    0.0071   -0.0456    0.1952
  S   C   10    0.0029   -0.0456   -0.0000   -0.0100   -0.0094    0.0085   -0.0641    0.2967
  Px  C   10    0.0037    0.0004    0.0080    0.0047    0.0054   -0.0054    0.0310   -0.1368
  Py  C   10   -0.0018   -0.0074   -0.0053   -0.0047   -0.0042    0.0046   -0.0249    0.1044
  Pz  C   10   -0.0015    0.0066   -0.0041    0.0018   -0.0002   -0.0002    0.0015    0.0050
  S   C   11    0.0073   -0.0389    0.0130   -0.0037   -0.0005   -0.0002   -0.0084    0.0296
  Px  C   11    0.0018    0.0035    0.0051    0.0036    0.0042   -0.0043    0.0285   -0.1330
  Py  C   11   -0.0017   -0.0003   -0.0044   -0.0023   -0.0027    0.0029   -0.0175    0.0805
  Pz  C   11    0.0016   -0.0092    0.0019   -0.0009   -0.0006    0.0005   -0.0059    0.0296
  S   H   12    0.0021   -0.0149    0.0036   -0.0023   -0.0011    0.0009   -0.0092    0.0371
  S   C   13    0.0089   -0.0237    0.0194    0.0035    0.0072   -0.0079    0.0468   -0.2291
  Px  C   13   -0.0014    0.0077   -0.0022    0.0009    0.0004   -0.0003    0.0051   -0.0239
  Py  C   13    0.0003   -0.0057    0.0001   -0.0013   -0.0012    0.0011   -0.0089    0.0414
  Pz  C   13    0.0021   -0.0020    0.0045    0.0019    0.0025   -0.0025    0.0158   -0.0735
  S   H   14    0.0029   -0.0079    0.0066    0.0012    0.0025   -0.0028    0.0172   -0.0855
  S   C   15    0.0078   -0.0048    0.0175    0.0074    0.0103   -0.0101    0.0654   -0.3106
  Px  C   15   -0.0017    0.0004   -0.0032   -0.0014   -0.0018    0.0017   -0.0093    0.0408
  Py  C   15    0.0019   -0.0071    0.0038    0.0007    0.0011   -0.0014    0.0071   -0.0331
  Pz  C   15   -0.0010    0.0096   -0.0025    0.0014    0.0006    0.0000    0.0011   -0.0000
  S   H   16    0.0024    0.0002    0.0056    0.0027    0.0037   -0.0035    0.0241   -0.1156
  S   C   17    0.0014   -0.0049   -0.0007    0.0046    0.0005   -0.0018   -0.0020    0.0438
  Px  C   17    0.0027    0.0047    0.0060    0.0034    0.0048   -0.0033    0.0257   -0.1236
  Py  C   17   -0.0002   -0.0184   -0.0022   -0.0038   -0.0040    0.0036   -0.0225    0.1011
  Pz  C   17   -0.0027    0.0147   -0.0046    0.0044    0.0016   -0.0018    0.0114   -0.0415
  S   H   18   -0.0026    0.0003   -0.0067    0.0058   -0.0009   -0.0022   -0.0020    0.0472
  S   C   19    0.0044    0.0166    0.0087    0.0100    0.0096   -0.0082    0.0515   -0.2254
  Px  C   19    0.0012   -0.0059    0.0033   -0.0001    0.0011   -0.0009    0.0100   -0.0571
  Py  C   19    0.0011   -0.0106    0.0014    0.0006   -0.0003   -0.0004   -0.0013    0.0131
  Pz  C   19   -0.0030    0.0088   -0.0065    0.0000   -0.0017    0.0024   -0.0140    0.0692
  S   H   20    0.0004    0.0151    0.0008    0.0052    0.0043   -0.0025    0.0188   -0.0829
  S   O   21   -0.0019   -0.0003   -0.0011   -0.0004   -0.0005    0.0004   -0.0019    0.0086
  Px  O   21   -0.0004   -0.0001   -0.0003   -0.0001   -0.0001    0.0001   -0.0005    0.0022
  Py  O   21    0.0003    0.0000    0.0002    0.0001    0.0001   -0.0001    0.0007   -0.0031
  Pz  O   21   -0.0001   -0.0000   -0.0000   -0.0000   -0.0000   -0.0000    0.0001   -0.0003
  S   H   22   -0.0007   -0.0001   -0.0003   -0.0001   -0.0001    0.0001   -0.0004    0.0015
  S   H   23   -0.0007   -0.0001   -0.0004   -0.0002   -0.0002    0.0002   -0.0008    0.0038
  S   O   24   -0.0838   -0.0649    0.6695    0.0073   -0.1222    0.2403   -0.1908   -0.0596
  Px  O   24    0.0043    0.0062   -0.0586    0.0067    0.0040   -0.0347    0.0405    0.0107
  Py  O   24   -0.0143   -0.0136    0.1101   -0.0012   -0.0170    0.0388   -0.0327   -0.0096
  Pz  O   24    0.0117    0.0068   -0.1184    0.0032    0.0197   -0.0568    0.0573    0.0142
  S   H   25   -0.0282   -0.0179    0.2249    0.0019   -0.0414    0.0827   -0.0676   -0.0184
  S   H   26   -0.0323   -0.0278    0.2486   -0.0038   -0.0354    0.0878   -0.0719   -0.0216
  S   O   27   -0.0523    0.8133   -0.1077   -0.0476    0.0181    0.0329   -0.0524    0.0221
  Px  O   27    0.0070   -0.1050    0.0128    0.0062   -0.0019   -0.0044    0.0071   -0.0053
  Py  O   27   -0.0022    0.0309   -0.0038   -0.0009    0.0006    0.0002    0.0005   -0.0020
  Pz  O   27   -0.0128    0.1943   -0.0253   -0.0105    0.0040    0.0066   -0.0099    0.0042
  S   H   28   -0.0183    0.2763   -0.0346   -0.0157    0.0054    0.0108   -0.0167    0.0087
  S   H   29   -0.0207    0.3092   -0.0396   -0.0157    0.0063    0.0095   -0.0133    0.0037
  S   O   30    0.0144    0.0034    0.0008    0.0010    0.0007   -0.0006    0.0035   -0.0138
  Px  O   30    0.0000   -0.0003   -0.0001   -0.0001   -0.0001    0.0001   -0.0006    0.0026
  Py  O   30    0.0034    0.0010    0.0002    0.0003    0.0002   -0.0002    0.0012   -0.0049
  Pz  O   30   -0.0007   -0.0005   -0.0001   -0.0002   -0.0002    0.0002   -0.0011    0.0045
  S   H   31    0.0045    0.0009    0.0002    0.0002    0.0001   -0.0001    0.0004   -0.0015
  S   H   32    0.0048    0.0014    0.0003    0.0004    0.0003   -0.0003    0.0016   -0.0065
  S   O   33   -0.0224   -0.0629    0.0747   -0.3669    0.7568    0.0176    0.1054    0.0292
  Px  O   33    0.0006    0.0034   -0.0033    0.0345   -0.0771   -0.0011   -0.0164   -0.0048
  Py  O   33   -0.0005   -0.0034   -0.0057   -0.0179    0.0348   -0.0029    0.0039    0.0010
  Pz  O   33   -0.0051   -0.0157    0.0117   -0.0915    0.1882    0.0016    0.0265    0.0072
  S   H   34   -0.0078   -0.0217    0.0272   -0.1288    0.2670    0.0067    0.0383    0.0106
  S   H   35   -0.0093   -0.0268    0.0221   -0.1409    0.2829    0.0032    0.0335    0.0089
  S   O   36   -0.0286   -0.0543   -0.1654    0.7108    0.3481    0.1900   -0.1586   -0.0227
  Px  O   36    0.0086    0.0159    0.0468   -0.1960   -0.0948   -0.0498    0.0398    0.0055
  Py  O   36   -0.0005   -0.0014   -0.0045    0.0169    0.0087    0.0070   -0.0052   -0.0009
  Pz  O   36    0.0007    0.0006    0.0006    0.0004    0.0015    0.0034   -0.0047   -0.0009
  S   H   37   -0.0137   -0.0241   -0.0686    0.2835    0.1348    0.0664   -0.0495   -0.0065
  S   H   38   -0.0098   -0.0189   -0.0568    0.2382    0.1164    0.0649   -0.0528   -0.0077
  S   O   39   -0.1057   -0.0018   -0.0005   -0.0003   -0.0008    0.0012   -0.0019    0.0093
  Px  O   39    0.0280    0.0004    0.0001    0.0001    0.0002   -0.0003    0.0004   -0.0019
  Py  O   39    0.0050    0.0001    0.0000    0.0000    0.0000   -0.0000    0.0000    0.0000
  Pz  O   39    0.0079    0.0001    0.0000    0.0000    0.0001   -0.0002    0.0003   -0.0017
  S   H   40   -0.0406   -0.0006   -0.0002   -0.0001   -0.0003    0.0005   -0.0007    0.0035
  S   H   41   -0.0300   -0.0005   -0.0001   -0.0001   -0.0002    0.0002   -0.0002    0.0010
  S   O   42   -0.0247   -0.1049   -0.3035   -0.1642   -0.1449    0.6971    0.3038   -0.0028
  Px  O   42   -0.0010   -0.0076   -0.0308   -0.0155   -0.0178    0.1176    0.0662    0.0066
  Py  O   42   -0.0010   -0.0082   -0.0321   -0.0197   -0.0196    0.1169    0.0648    0.0034
  Pz  O   42   -0.0027   -0.0119   -0.0370   -0.0193   -0.0178    0.0916    0.0436   -0.0069
  S   H   43   -0.0085   -0.0377   -0.1103   -0.0602   -0.0533    0.2594    0.1150   -0.0007
  S   H   44   -0.0082   -0.0349   -0.1018   -0.0514   -0.0473    0.2396    0.1058    0.0019
  S   O   45   -0.0797   -0.0821   -0.0077    0.1634   -0.0838   -0.3585    0.6021    0.1219
  Px  O   45    0.0158    0.0171   -0.0059   -0.0165    0.0242    0.0714   -0.1146   -0.0223
  Py  O   45   -0.0114   -0.0201   -0.0179    0.0247   -0.0070   -0.0479    0.0612    0.0114
  Pz  O   45    0.0116    0.0045   -0.0126   -0.0116    0.0186    0.0489   -0.0872   -0.0187
  S   H   46   -0.0342   -0.0253    0.0263    0.0554   -0.0396   -0.1272    0.2213    0.0451
  S   H   47   -0.0342   -0.0461   -0.0298    0.0556   -0.0312   -0.1379    0.1856    0.0339
  S   O   48    0.0002    0.0063   -0.0001    0.0019    0.0017   -0.0016    0.0082   -0.0331
  Px  O   48    0.0000   -0.0001   -0.0001   -0.0000    0.0000   -0.0000   -0.0000    0.0003
  Py  O   48    0.0000    0.0002   -0.0001   -0.0000   -0.0000    0.0000   -0.0007    0.0037
  Pz  O   48   -0.0001   -0.0019    0.0002   -0.0006   -0.0006    0.0006   -0.0031    0.0124
  S   H   49    0.0001    0.0026   -0.0000    0.0008    0.0007   -0.0007    0.0036   -0.0146
  S   H   50    0.0000    0.0011   -0.0001    0.0002    0.0002   -0.0001    0.0000    0.0006
  S   O   51   -0.0723   -0.2173   -0.4038   -0.2124   -0.0993   -0.2029   -0.4281   -0.1712
  Px  O   51   -0.0071   -0.0183   -0.0363   -0.0074   -0.0167   -0.0136   -0.0148   -0.0094
  Py  O   51   -0.0095   -0.0383   -0.0820   -0.0538   -0.0169   -0.0117   -0.1147   -0.0386
  Pz  O   51    0.0114    0.0341    0.0578    0.0352    0.0118    0.0364    0.0690    0.0225
  S   H   52   -0.0263   -0.0814   -0.1425   -0.0833   -0.0280   -0.0738   -0.1590   -0.0541
  S   H   53   -0.0270   -0.0828   -0.1601   -0.0806   -0.0422   -0.0401   -0.1426   -0.0581
  S   O   54    0.8412    0.0078    0.0060    0.0026    0.0002   -0.0008    0.0002    0.0023
  Px  O   54   -0.0681   -0.0007   -0.0005   -0.0002   -0.0001    0.0001   -0.0003    0.0010
  Py  O   54   -0.1424   -0.0012   -0.0009   -0.0004   -0.0000    0.0001    0.0000   -0.0005
  Pz  O   54   -0.1734   -0.0016   -0.0012   -0.0005   -0.0000    0.0002    0.0001   -0.0007
  S   H   55    0.2700    0.0025    0.0018    0.0008    0.0001   -0.0003    0.0003   -0.0007
  S   H   56    0.3359    0.0029    0.0022    0.0009    0.0000   -0.0002   -0.0002    0.0018
  S   H   57    0.0070    0.0120    0.0150    0.0095    0.0041    0.0017    0.0232   -0.0505
  S   H   58    0.0001   -0.0146   -0.0128   -0.0099   -0.0067    0.0082   -0.0358    0.1401


   Root No.      17        18        19        20        21        22        23        24

                17 A      18 A      19 A      20 A      21 A      22 A      23 A      24 A   

               -25.694   -24.870   -22.558   -21.092   -20.567   -19.670   -18.665   -18.379
  
  S   C    1    0.0151   -0.2160    0.3279    0.1654    0.2713   -0.1444    0.0727    0.0124
  Px  C    1   -0.0005   -0.0103   -0.0244   -0.0167   -0.0570    0.0978   -0.4272   -0.0004
  Py  C    1    0.0092   -0.1420    0.1652    0.0647    0.0894   -0.0633    0.1420   -0.0018
  Pz  C    1   -0.0051    0.0646   -0.0899   -0.0140   -0.0188   -0.0397    0.0205    0.0075
  S   O    2   -0.0053    0.1305   -0.2490   -0.1508   -0.2524    0.1214    0.0470   -0.0192
  Px  O    2   -0.0021    0.0102   -0.0005    0.0086    0.0003    0.0417   -0.2614    0.0025
  Py  O    2    0.0030   -0.0396    0.0911    0.0755    0.1449   -0.1125    0.0458    0.0171
  Pz  O    2   -0.0011    0.0163   -0.0586   -0.0311   -0.0618    0.0092    0.0272   -0.0040
  S   N    3    0.0072   -0.0471   -0.1083   -0.0916   -0.1601    0.0811   -0.0340   -0.0075
  Px  N    3   -0.0200    0.2831   -0.3145   -0.0762   -0.0717   -0.0444    0.1199    0.0142
  Py  N    3    0.0102   -0.0969   -0.0585   -0.1061   -0.2037    0.0255    0.4553   -0.0241
  Pz  N    3   -0.0050   -0.0031    0.0226    0.0847    0.1192   -0.1012   -0.2214    0.0222
  S   H    4    0.0063   -0.0403   -0.0756   -0.0969   -0.1706    0.0500    0.3076   -0.0197
  S   C    5   -0.0442    0.4113   -0.1480    0.1405    0.2535   -0.2394    0.0548    0.0223
  Px  C    5   -0.0019   -0.0041    0.0396    0.0412    0.0578   -0.1248    0.2507   -0.0036
  Py  C    5    0.0082    0.0188   -0.2036   -0.0642   -0.0448   -0.1052    0.1080    0.0258
  Pz  C    5   -0.0144   -0.0206   -0.0571    0.0915    0.0670   -0.1440   -0.0946    0.0221
  S   H    6   -0.0324    0.1644   -0.0601    0.1318    0.1594   -0.1687   -0.0411    0.0178
  S   C    7    0.0115    0.1223    0.3629   -0.0558   -0.0336    0.2632    0.0325   -0.0464
  Px  C    7    0.0177   -0.0895   -0.0145   -0.0251   -0.0615   -0.1729    0.1024   -0.0092
  Py  C    7   -0.0020    0.1628   -0.0631    0.0212    0.1606   -0.0425    0.0374    0.0072
  Pz  C    7   -0.0602    0.0572   -0.0494    0.1679    0.0318   -0.1029   -0.0504   -0.0115
  S   H    8   -0.0097    0.0494    0.1820    0.0020   -0.0356    0.2046   -0.0594   -0.0177
  S   H    9    0.0382    0.0574    0.1821   -0.1180    0.0046    0.1942    0.0480    0.0005
  S   C   10    0.0314   -0.3052    0.0252   -0.0469   -0.2255   -0.2147   -0.0259    0.0036
  Px  C   10    0.0472   -0.0681   -0.1974   -0.0276    0.0816   -0.1641   -0.0607    0.0348
  Py  C   10    0.0526    0.0651    0.1156   -0.0776    0.0281    0.0287    0.0672   -0.0277
  Pz  C   10   -0.2364   -0.0084   -0.0329    0.3200   -0.1315    0.0294    0.0139    0.0059
  S   C   11    0.4339   -0.1751   -0.1740   -0.2208    0.2344   -0.0034   -0.0214   -0.0124
  Px  C   11    0.0800    0.1077   -0.0680    0.2019    0.0818    0.1530    0.0202   -0.0083
  Py  C   11   -0.0339   -0.0400    0.0338   -0.1286    0.0213   -0.0378    0.0245   -0.0104
  Pz  C   11   -0.0421   -0.0744    0.0021   -0.0073   -0.1538   -0.2249   -0.0654    0.0309
  S   H   12    0.2015   -0.0677   -0.0619   -0.1607    0.1818    0.0860    0.0296   -0.0210
  S   C   13    0.3992    0.1890   -0.0187    0.3073   -0.0082    0.2060    0.0534   -0.0139
  Px  C   13   -0.0744    0.1092    0.1214    0.1248   -0.1496    0.0350    0.0549   -0.0076
  Py  C   13    0.0784   -0.0969   -0.1175   -0.0623    0.1594    0.0495   -0.0069   -0.0090
  Pz  C   13   -0.0616    0.0714    0.0857   -0.0424   -0.1384   -0.2006   -0.0636    0.0328
  S   H   14    0.1827    0.0966    0.0006    0.2083   -0.0005    0.2022    0.0771   -0.0252
  S   C   15   -0.0197    0.3565    0.2809   -0.0553   -0.2001   -0.1556   -0.0136    0.0074
  Px  C   15    0.0456    0.0248    0.0619    0.0461   -0.0883   -0.0047    0.0365   -0.0122
  Py  C   15    0.0486   -0.0036   -0.0486    0.0778    0.0108    0.0229   -0.0125    0.0115
  Pz  C   15   -0.2172   -0.0182    0.0255   -0.2945    0.1350   -0.0673   -0.0266   -0.0094
  S   H   16   -0.0092    0.1727    0.1710   -0.0369   -0.1328   -0.0835    0.0151   -0.0068
  S   C   17   -0.3974   -0.2307   -0.1834    0.2710   -0.0307    0.1281    0.0355    0.0048
  Px  C   17   -0.0728    0.0529   -0.0391   -0.1454    0.1566    0.0186   -0.0116    0.0069
  Py  C   17    0.0720   -0.0550    0.0196    0.0993   -0.1449   -0.1225   -0.0081    0.0059
  Pz  C   17   -0.0677    0.0773   -0.0093    0.0241    0.1596    0.2392    0.0852   -0.0309
  S   H   18   -0.1825   -0.0849   -0.0735    0.1889    0.0059    0.1558    0.0592   -0.0146
  S   C   19   -0.4138    0.1094    0.0291   -0.2599    0.2338    0.1163    0.0239   -0.0219
  Px  C   19    0.0854    0.1499    0.1639   -0.1674   -0.0550   -0.1424   -0.0216   -0.0067
  Py  C   19   -0.0424   -0.0755   -0.0907    0.1181   -0.0085    0.0202   -0.0057    0.0167
  Pz  C   19   -0.0489   -0.0659   -0.0657   -0.0035    0.1443    0.1904    0.0709   -0.0333
  S   H   20   -0.1872    0.0582    0.0286   -0.1742    0.1710    0.1228    0.0460   -0.0333
  S   O   21   -0.0002   -0.0048   -0.0029    0.0003    0.0015    0.0007   -0.0001    0.0000
  Px  O   21   -0.0001   -0.0013   -0.0006   -0.0000   -0.0003   -0.0006    0.0006   -0.0003
  Py  O   21    0.0003    0.0046    0.0058   -0.0003   -0.0072   -0.0044    0.0028   -0.0013
  Pz  O   21   -0.0001    0.0015    0.0023   -0.0006   -0.0028   -0.0020    0.0009   -0.0005
  S   H   22    0.0001    0.0012    0.0026   -0.0002   -0.0035   -0.0022    0.0014   -0.0007
  S   H   23   -0.0001   -0.0032   -0.0032    0.0002    0.0037    0.0023   -0.0014    0.0007
  S   O   24   -0.0002   -0.0031   -0.0018    0.0009    0.0043   -0.0069    0.0016    0.0005
  Px  O   24    0.0006    0.0004    0.0016    0.0010    0.0011    0.0005   -0.0010    0.0012
  Py  O   24   -0.0003    0.0000   -0.0008   -0.0009   -0.0022    0.0027   -0.0006   -0.0016
  Pz  O   24    0.0009    0.0009   -0.0020   -0.0016   -0.0014   -0.0017    0.0001   -0.0015
  S   H   25   -0.0005   -0.0009    0.0020    0.0013    0.0010    0.0016   -0.0005    0.0011
  S   H   26   -0.0003   -0.0001   -0.0020   -0.0015   -0.0026    0.0017   -0.0001   -0.0014
  S   O   27    0.0563    0.0035    0.0052    0.0025   -0.0137   -0.0191   -0.0049    0.0025
  Px  O   27   -0.0147    0.0002   -0.0015   -0.0055    0.0127    0.0199    0.0084   -0.0058
  Py  O   27   -0.0127   -0.0010   -0.0035   -0.0042    0.0177    0.0319    0.0127   -0.0083
  Pz  O   27    0.0044    0.0001   -0.0011   -0.0017    0.0080    0.0147    0.0062   -0.0038
  S   H   28    0.0224    0.0011    0.0025    0.0033   -0.0111   -0.0179   -0.0070    0.0046
  S   H   29   -0.0051   -0.0006   -0.0033   -0.0036    0.0160    0.0270    0.0099   -0.0061
  S   O   30   -0.0027   -0.0019   -0.0022    0.0023   -0.0004   -0.0009    0.0032    0.0067
  Px  O   30    0.0015    0.0010    0.0039   -0.0078    0.0022    0.0177    0.0262    0.0033
  Py  O   30   -0.0012   -0.0008   -0.0029    0.0024   -0.0004   -0.0048   -0.0026   -0.0209
  Pz  O   30    0.0015    0.0016    0.0058   -0.0074    0.0011    0.0159    0.0170    0.0079
  S   H   31    0.0006    0.0007    0.0023   -0.0051    0.0012    0.0102    0.0134   -0.0019
  S   H   32   -0.0017   -0.0013   -0.0035    0.0053   -0.0011   -0.0115   -0.0161   -0.0069
  S   O   33   -0.0003   -0.0005    0.0018    0.0013    0.0023   -0.0009   -0.0017    0.0003
  Px  O   33    0.0001    0.0005   -0.0022   -0.0023   -0.0047    0.0027    0.0077   -0.0016
  Py  O   33    0.0000    0.0002   -0.0013   -0.0015   -0.0031    0.0014    0.0088   -0.0012
  Pz  O   33   -0.0000   -0.0001    0.0002   -0.0000   -0.0003    0.0003    0.0003   -0.0003
  S   H   34   -0.0001   -0.0003    0.0014    0.0013    0.0027   -0.0014   -0.0051    0.0009
  S   H   35   -0.0000    0.0002   -0.0015   -0.0016   -0.0033    0.0017    0.0063   -0.0011
  S   O   36    0.0134    0.0027    0.0020   -0.0040   -0.0031   -0.0055   -0.0029    0.0007
  Px  O   36   -0.0026   -0.0003    0.0001   -0.0011   -0.0004   -0.0018   -0.0016    0.0004
  Py  O   36    0.0012    0.0002    0.0004   -0.0008   -0.0015   -0.0036   -0.0025    0.0009
  Pz  O   36    0.0033    0.0007    0.0014   -0.0030   -0.0039   -0.0095   -0.0061    0.0022
  S   H   37    0.0006   -0.0001   -0.0010    0.0025    0.0027    0.0065    0.0042   -0.0014
  S   H   38    0.0051    0.0009    0.0010   -0.0018   -0.0021   -0.0049   -0.0029    0.0011
  S   O   39   -0.0007    0.0043    0.0019    0.0038    0.0065   -0.0016   -0.0120    0.0008
  Px  O   39    0.0001   -0.0003   -0.0003    0.0004    0.0013   -0.0005   -0.0151    0.0016
  Py  O   39   -0.0000    0.0001    0.0007    0.0009    0.0012   -0.0003    0.0154   -0.0022
  Pz  O   39    0.0003   -0.0023   -0.0031   -0.0084   -0.0181    0.0077    0.2064   -0.0237
  S   H   40   -0.0003    0.0020    0.0016    0.0040    0.0083   -0.0035   -0.0928    0.0106
  S   H   41    0.0001   -0.0014   -0.0016   -0.0051   -0.0107    0.0042    0.1021   -0.0113
  S   O   42    0.0070   -0.0131    0.0036   -0.0053   -0.0045    0.0028   -0.0011    0.0002
  Px  O   42    0.0002   -0.0013   -0.0015   -0.0013   -0.0044    0.0054    0.0005   -0.0015
  Py  O   42    0.0023   -0.0034    0.0003   -0.0094   -0.0108    0.0094   -0.0016   -0.0019
  Pz  O   42    0.0033   -0.0125    0.0063   -0.0143   -0.0173    0.0208    0.0045   -0.0028
  S   H   43    0.0031   -0.0053    0.0013   -0.0060   -0.0063    0.0054   -0.0003   -0.0009
  S   H   44    0.0008   -0.0029   -0.0005    0.0010   -0.0005    0.0015    0.0010   -0.0004
  S   O   45    0.0217    0.0104    0.0018   -0.0099   -0.0013   -0.0090   -0.0029    0.0010
  Px  O   45   -0.0064   -0.0027   -0.0016    0.0045    0.0017    0.0053    0.0032   -0.0007
  Py  O   45   -0.0002   -0.0010   -0.0003    0.0058    0.0014    0.0053    0.0063   -0.0008
  Pz  O   45   -0.0005   -0.0008    0.0011   -0.0010    0.0006   -0.0030    0.0021    0.0004
  S   H   46    0.0063    0.0033   -0.0000   -0.0025   -0.0011   -0.0009   -0.0031    0.0001
  S   H   47    0.0046    0.0002    0.0011    0.0030    0.0013    0.0024    0.0043   -0.0004
  S   O   48   -0.0106   -0.0004   -0.0117    0.0110   -0.0024   -0.0130   -0.0020    0.0139
  Px  O   48    0.0016   -0.0010   -0.0013   -0.0011    0.0017   -0.0070   -0.0040   -0.1138
  Py  O   48    0.0028    0.0005    0.0163   -0.0222    0.0009    0.0655    0.0301    0.6642
  Pz  O   48    0.0042    0.0002    0.0132   -0.0149   -0.0010    0.0443    0.0196    0.4868
  S   H   49   -0.0042   -0.0006   -0.0112    0.0123    0.0004   -0.0357   -0.0161   -0.3809
  S   H   50    0.0021    0.0006    0.0138   -0.0169    0.0007    0.0441    0.0180    0.3791
  S   O   51    0.0111   -0.0377    0.0298   -0.0009    0.0130   -0.0058    0.0176    0.0008
  Px  O   51    0.0001   -0.0045    0.0100    0.0130    0.0233   -0.0186    0.0166    0.0054
  Py  O   51    0.0008   -0.0048    0.0038    0.0033    0.0079   -0.0096   -0.0004    0.0025
  Pz  O   51   -0.0003   -0.0020    0.0112    0.0089    0.0230   -0.0199    0.0262    0.0057
  S   H   52    0.0017    0.0014   -0.0154   -0.0128   -0.0274    0.0201   -0.0220   -0.0048
  S   H   53    0.0022   -0.0105    0.0114    0.0105    0.0200   -0.0167    0.0102    0.0042
  S   O   54   -0.0001   -0.0027    0.0085    0.0048    0.0075    0.0021   -0.0274    0.0010
  Px  O   54   -0.0002    0.0019    0.0001    0.0029    0.0067   -0.0048   -0.0250    0.0034
  Py  O   54    0.0000   -0.0004    0.0013    0.0007    0.0011    0.0018   -0.0093   -0.0001
  Pz  O   54    0.0000   -0.0003    0.0004   -0.0000   -0.0004    0.0020   -0.0040   -0.0006
  S   H   55    0.0002   -0.0020   -0.0004   -0.0026   -0.0057    0.0027    0.0204   -0.0021
  S   H   56   -0.0002    0.0014   -0.0008    0.0008    0.0021   -0.0035   -0.0005    0.0012
  S   H   57    0.0093   -0.1318    0.2124    0.1052    0.1818   -0.1306    0.2823    0.0050
  S   H   58   -0.0157    0.1895   -0.1048    0.0514    0.1231   -0.1881    0.1945    0.0151


   Root No.      25        26        27        28        29        30        31        32

                25 A      26 A      27 A      28 A      29 A      30 A      31 A      32 A   

               -18.171   -17.976   -17.425   -17.326   -17.323   -17.284   -17.248   -17.215
  
  S   C    1   -0.0099    0.0032   -0.0086   -0.0228    0.0093   -0.0135    0.0224    0.0001
  Px  C    1    0.1098    0.0084    0.1108    0.0058   -0.0068    0.0113   -0.0700    0.0302
  Py  C    1   -0.0366   -0.0057    0.0503   -0.0739    0.0295   -0.0425    0.0162    0.0385
  Pz  C    1   -0.0046   -0.0000    0.0452   -0.0136    0.0021   -0.0003   -0.0149    0.0229
  S   O    2   -0.0206   -0.0085    0.0429   -0.0282    0.0127   -0.0182   -0.0136    0.0243
  Px  O    2    0.0742    0.0062    0.0730   -0.0097   -0.0007    0.0003   -0.0361    0.0256
  Py  O    2   -0.0045    0.0061   -0.0500    0.0519   -0.0216    0.0340    0.0023   -0.0262
  Pz  O    2   -0.0112   -0.0048    0.1108   -0.1047    0.0396   -0.0557    0.0035    0.0723
  S   N    3   -0.0085   -0.0023   -0.0003    0.0187   -0.0035    0.0100   -0.0115   -0.0042
  Px  N    3   -0.0385    0.0017   -0.0857    0.0413   -0.0153    0.0237    0.0317   -0.0385
  Py  N    3   -0.1179   -0.0202    0.0176   -0.0218    0.0113   -0.0126   -0.0064    0.0251
  Pz  N    3    0.0598    0.0070    0.1194   -0.0139   -0.0021    0.0068   -0.0571    0.0363
  S   H    4   -0.0699   -0.0129   -0.0242   -0.0040    0.0020   -0.0052    0.0097    0.0023
  S   C    5   -0.0023    0.0020    0.0225   -0.0209    0.0021   -0.0063    0.0021    0.0078
  Px  C    5   -0.0577   -0.0084    0.0680   -0.0307    0.0153   -0.0144   -0.0265    0.0332
  Py  C    5   -0.0388    0.0054    0.0059    0.0292   -0.0039    0.0229   -0.0133   -0.0089
  Pz  C    5    0.0339   -0.0008    0.1636   -0.0079   -0.0072    0.0154   -0.0911    0.0503
  S   H    6    0.0242   -0.0009    0.1126   -0.0181   -0.0035    0.0030   -0.0558    0.0373
  S   C    7   -0.0079   -0.0122   -0.1083   -0.0226    0.0109   -0.0255    0.0693   -0.0197
  Px  C    7   -0.0326   -0.0081    0.1644    0.0158   -0.0055    0.0267   -0.1080    0.0422
  Py  C    7   -0.0038    0.0123   -0.0978   -0.0187    0.0072   -0.0273    0.0684   -0.0271
  Pz  C    7    0.0216   -0.0113    0.0783   -0.0115   -0.0033    0.0010   -0.0425    0.0281
  S   H    8    0.0181   -0.0078   -0.0828   -0.0133    0.0047   -0.0151    0.0538   -0.0144
  S   H    9   -0.0152    0.0134   -0.1262   -0.0075    0.0085   -0.0201    0.0773   -0.0337
  S   C   10   -0.0004   -0.0021    0.0851    0.0178   -0.0067    0.0325   -0.0538    0.0131
  Px  C   10    0.0208    0.0180   -0.0930   -0.0111    0.0030   -0.0180    0.0652   -0.0295
  Py  C   10   -0.0200   -0.0121    0.0799    0.0053   -0.0021   -0.0028   -0.0622    0.0281
  Pz  C   10   -0.0018    0.0037    0.0043   -0.0028   -0.0001   -0.0122   -0.0082    0.0134
  S   C   11    0.0066   -0.0081    0.0806    0.0178   -0.0101    0.0043   -0.0539    0.0187
  Px  C   11    0.0016   -0.0002   -0.0863   -0.0270    0.0095   -0.0331    0.0580   -0.0084
  Py  C   11   -0.0112   -0.0057    0.1254    0.0287   -0.0118    0.0121   -0.0947    0.0335
  Pz  C   11    0.0186    0.0157   -0.1462   -0.0288    0.0128   -0.0009    0.1103   -0.0516
  S   H   12   -0.0105   -0.0113    0.1650    0.0367   -0.0166    0.0103   -0.1212    0.0476
  S   C   13   -0.0129   -0.0048   -0.0237   -0.0105    0.0059   -0.0018    0.0168   -0.0014
  Px  C   13   -0.0220   -0.0046    0.1109    0.0281   -0.0084    0.0242   -0.0830    0.0280
  Py  C   13    0.0060   -0.0036   -0.0172   -0.0077    0.0006   -0.0239    0.0087    0.0061
  Pz  C   13    0.0198    0.0176   -0.1493   -0.0308    0.0129   -0.0092    0.1029   -0.0498
  S   H   14   -0.0245   -0.0126    0.1069    0.0218   -0.0069    0.0143   -0.0758    0.0348
  S   C   15   -0.0002    0.0011    0.0727    0.0157   -0.0066    0.0198   -0.0588    0.0124
  Px  C   15   -0.0176   -0.0100    0.2179    0.0586   -0.0238    0.0328   -0.1503    0.0498
  Py  C   15    0.0082    0.0094   -0.1684   -0.0402    0.0172   -0.0363    0.1046   -0.0336
  Pz  C   15    0.0091   -0.0062    0.0360    0.0009   -0.0039   -0.0192   -0.0372    0.0236
  S   H   16   -0.0115   -0.0080    0.2113    0.0574   -0.0241    0.0352   -0.1387    0.0431
  S   C   17   -0.0118    0.0035    0.0325    0.0232   -0.0079   -0.0101   -0.0333    0.0150
  Px  C   17    0.0083    0.0079   -0.1683   -0.0342    0.0144   -0.0518    0.1088   -0.0283
  Py  C   17    0.0004    0.0005    0.0719    0.0138   -0.0074   -0.0023   -0.0647    0.0239
  Pz  C   17   -0.0249   -0.0146    0.1180    0.0291   -0.0110   -0.0016   -0.0959    0.0343
  S   H   18   -0.0196   -0.0084    0.1421    0.0398   -0.0157    0.0137   -0.1120    0.0320
  S   C   19   -0.0043   -0.0091   -0.0148   -0.0098    0.0034   -0.0282   -0.0028    0.0158
  Px  C   19    0.0047   -0.0070    0.0882    0.0085   -0.0065    0.0015   -0.0784    0.0300
  Py  C   19    0.0042    0.0117   -0.1279   -0.0158    0.0073   -0.0501    0.0695   -0.0185
  Pz  C   19   -0.0230   -0.0176    0.1520    0.0338   -0.0131    0.0150   -0.1054    0.0429
  S   H   20   -0.0145   -0.0180    0.1260    0.0190   -0.0082    0.0141   -0.0883    0.0380
  S   O   21    0.0000    0.0000    0.0055    0.0097   -0.0045   -0.0076    0.0106   -0.0022
  Px  O   21   -0.0007   -0.0007    0.1113    0.1703   -0.0791   -0.1289    0.1738   -0.0342
  Py  O   21   -0.0026   -0.0021    0.2803    0.4098   -0.1901   -0.3042    0.4040   -0.0783
  Pz  O   21   -0.0009   -0.0007    0.0927    0.1338   -0.0621   -0.0988    0.1306   -0.0252
  S   H   22   -0.0013   -0.0011    0.1428    0.2093   -0.0971   -0.1556    0.2068   -0.0401
  S   H   23    0.0013    0.0011   -0.1467   -0.2148    0.0996    0.1596   -0.2120    0.0411
  S   O   24   -0.0003    0.0005   -0.0084    0.0151   -0.0061    0.0214    0.0131    0.0398
  Px  O   24    0.0008    0.0005   -0.0712    0.1440   -0.0593    0.1331    0.0267    0.3786
  Py  O   24   -0.0003   -0.0007    0.0805   -0.1696    0.0696   -0.1222    0.0214   -0.3424
  Pz  O   24   -0.0004   -0.0004    0.1012   -0.2273    0.0932   -0.1157    0.1043   -0.3482
  S   H   25    0.0005    0.0003   -0.0655    0.1420   -0.0583    0.0845   -0.0449    0.2512
  S   H   26   -0.0004   -0.0006    0.0680   -0.1422    0.0584   -0.1050    0.0144   -0.2910
  S   O   27    0.0017    0.0014   -0.0192    0.0000   -0.0006   -0.0371   -0.0168   -0.0090
  Px  O   27   -0.0041   -0.0046    0.1545   -0.0331    0.0194    0.3621    0.1519   -0.1574
  Py  O   27   -0.0061   -0.0065    0.2130   -0.0427    0.0256    0.5048    0.2152   -0.1974
  Pz  O   27   -0.0028   -0.0028    0.0801   -0.0142    0.0087    0.1823    0.0784   -0.0573
  S   H   28    0.0033    0.0036   -0.1183    0.0253   -0.0149   -0.2761   -0.1161    0.1193
  S   H   29   -0.0044   -0.0045    0.1281   -0.0242    0.0146    0.2933    0.1245   -0.1061
  S   O   30    0.0223    0.0268    0.0023    0.0004    0.0008    0.0004   -0.0009    0.0003
  Px  O   30    0.0056    0.7341    0.0322   -0.0008   -0.0029    0.0048   -0.0142    0.0064
  Py  O   30   -0.0184    0.0384    0.0030   -0.0005   -0.0013    0.0006   -0.0019    0.0010
  Pz  O   30    0.0026    0.4046    0.0122   -0.0008   -0.0012    0.0017   -0.0042    0.0019
  S   H   31   -0.0068    0.3749    0.0149   -0.0006   -0.0018    0.0022   -0.0064    0.0029
  S   H   32   -0.0116   -0.3861   -0.0157    0.0003    0.0010   -0.0023    0.0066   -0.0029
  S   O   33    0.0006    0.0003   -0.0089    0.0138   -0.0054    0.0078   -0.0051   -0.0164
  Px  O   33   -0.0035   -0.0016    0.0709   -0.1331    0.0531   -0.0852    0.0433    0.0507
  Py  O   33   -0.0036   -0.0014    0.0526   -0.0975    0.0386   -0.0598    0.0382    0.1028
  Pz  O   33   -0.0004   -0.0003    0.0154   -0.0259    0.0101   -0.0147    0.0117    0.0501
  S   H   34    0.0022    0.0009   -0.0407    0.0763   -0.0304    0.0483   -0.0264   -0.0439
  S   H   35   -0.0026   -0.0011    0.0439   -0.0801    0.0318   -0.0495    0.0291    0.0643
  S   O   36    0.0010    0.0004   -0.0013   -0.0197    0.0078    0.0088    0.0455    0.0370
  Px  O   36    0.0007    0.0003   -0.0018   -0.0214    0.0085    0.0110    0.0540    0.0448
  Py  O   36    0.0011    0.0007   -0.0078   -0.0320    0.0128    0.0191    0.0920    0.0738
[...]
 PZ  N   3   0.00000     0.00012    -0.02963     0.80418     0.00050     0.00001
  
  S  H   4   0.00000    -0.00017     0.04512    -0.00087     0.00096    -0.00001
  
  S  C   5   0.00001    -0.00126     0.01045    -0.01130     0.00916    -0.00008
 PX  C   5  -0.00000     0.00002    -0.03556     0.00641     0.00026    -0.00000
 PY  C   5  -0.00001     0.00046     0.01702     0.04019    -0.00445     0.00004
 PZ  C   5  -0.00001    -0.00179    -0.00907     0.05669     0.01135    -0.00013
  
  S  H   6   0.00000     0.00250     0.00663    -0.02679    -0.02143     0.00008
  
  S  C   7  -0.00002    -0.00020    -0.00741     0.02903    -0.00055     0.00002
 PX  C   7  -0.00002     0.00045     0.00503     0.00992     0.00009     0.00004
 PY  C   7   0.00001     0.00020     0.00485     0.02708    -0.00101    -0.00001
 PZ  C   7  -0.00000    -0.00006    -0.00129     0.02226    -0.00046     0.00001
  
  S  H   8  -0.00001     0.00051     0.01066     0.00154    -0.00037    -0.00000
  
  S  H   9  -0.00000    -0.00006    -0.00088    -0.00235     0.00094    -0.00001
  
  S  C  10  -0.00003     0.00009     0.00322    -0.00595    -0.00012     0.00006
 PX  C  10  -0.00009     0.00018    -0.00328     0.01014     0.00009     0.00002
 PY  C  10  -0.00009     0.00006     0.00373     0.00162    -0.00023    -0.00009
 PZ  C  10  -0.00005     0.00010    -0.00025     0.00312    -0.00005     0.00001
  
  S  C  11  -0.00011    -0.00015    -0.00065     0.00119    -0.00003    -0.00005
 PX  C  11  -0.00014     0.00011     0.00029    -0.00270     0.00006     0.00005
 PY  C  11   0.00009    -0.00006    -0.00017    -0.00330     0.00006     0.00000
 PZ  C  11   0.00000    -0.00019    -0.00078     0.00007     0.00003    -0.00005
  
  S  H  12   0.00003     0.00005    -0.00031     0.00058     0.00002     0.00002
  
  S  C  13   0.00013    -0.00005     0.00034    -0.00048     0.00000    -0.00003
 PX  C  13   0.00008    -0.00004    -0.00058    -0.00020     0.00004     0.00002
 PY  C  13   0.00017    -0.00008     0.00015    -0.00153     0.00004     0.00003
 PZ  C  13   0.00010    -0.00006    -0.00013    -0.00028     0.00002    -0.00001
  
  S  H  14  -0.00002    -0.00003    -0.00020     0.00029     0.00000    -0.00000
  
  S  C  15  -0.00130    -0.00012     0.00010    -0.00011     0.00000    -0.00001
 PX  C  15  -0.00146     0.00014     0.00006     0.00181    -0.00006    -0.00001
 PY  C  15   0.00079     0.00003     0.00018     0.00240    -0.00008    -0.00002
 PZ  C  15  -0.00014    -0.00015    -0.00000     0.00103    -0.00002    -0.00004
  
  S  H  16   0.00279     0.00005     0.00007    -0.00013    -0.00000     0.00002
  
  S  C  17  -0.00010    -0.00155    -0.00016     0.00054     0.00017    -0.00055
 PX  C  17  -0.00011     0.00124    -0.00006    -0.00239    -0.00000     0.00045
 PY  C  17   0.00011    -0.00025    -0.00022    -0.00392     0.00019    -0.00008
 PZ  C  17  -0.00002    -0.00183    -0.00026    -0.00098     0.00008    -0.00053
  
  S  H  18   0.00003     0.00219    -0.00004    -0.00021    -0.00019     0.00118
  
  S  C  19   0.00008     0.00007     0.00025    -0.00047    -0.00003    -0.00011
 PX  C  19   0.00009    -0.00002    -0.00033     0.00013     0.00005    -0.00005
 PY  C  19   0.00020     0.00021     0.00027    -0.00092     0.00001     0.00008
 PZ  C  19  -0.00007    -0.00007     0.00001    -0.00021     0.00001    -0.00012
  
  S  H  20   0.00011     0.00011    -0.00007     0.00006     0.00001     0.00027
  
  S  O  21   0.00055    -0.00000    -0.00000     0.00000    -0.00000    -0.00000
 PX  O  21  -0.35368    -0.00000    -0.00000     0.00000    -0.00000    -0.00000
 PY  O  21  -0.15117    -0.00000    -0.00000    -0.00000     0.00000    -0.00000
 PZ  O  21   0.92307    -0.00000    -0.00000     0.00000    -0.00000    -0.00000
  
  S  H  22  -0.00001     0.00000     0.00000    -0.00001     0.00000     0.00000
  
  S  H  23   0.00001     0.00000     0.00000    -0.00001     0.00000     0.00000
  
  S  O  24  -0.00000    -0.00127    -0.00017    -0.00005    -0.00014     0.00000
 PX  O  24  -0.00000    -0.00068    -0.00002     0.00011     0.00004     0.00000
 PY  O  24  -0.00000    -0.00133    -0.00023    -0.00009    -0.00024    -0.00000
 PZ  O  24  -0.00000    -0.00037     0.00014     0.00009    -0.00002    -0.00000
  
  S  H  25   0.00000     0.00149     0.00041     0.00006     0.00012    -0.00001
  
  S  H  26   0.00000     0.00215     0.00011     0.00019     0.00028    -0.00001
  
  S  O  27  -0.00000    -0.00026    -0.00001    -0.00003    -0.00001     0.00001
 PX  O  27   0.00000     0.00016     0.00001     0.00000     0.00001    -0.00000
 PY  O  27  -0.00000    -0.00030    -0.00002    -0.00006    -0.00002     0.00001
 PZ  O  27  -0.00000    -0.00057    -0.00003    -0.00007    -0.00003     0.00001
  
  S  H  28   0.00000     0.00027     0.00001     0.00003     0.00001    -0.00001
  
  S  H  29   0.00001     0.00068     0.00003     0.00010     0.00003    -0.00003
  
  S  O  30  -0.00000     0.00000    -0.00008     0.00025    -0.00001     0.00000
 PX  O  30  -0.00000    -0.00000    -0.00005     0.00015     0.00000     0.00000
 PY  O  30  -0.00000     0.00000    -0.00019     0.00041    -0.00001     0.00000
 PZ  O  30  -0.00000    -0.00000    -0.00004     0.00002    -0.00000     0.00000
  
  S  H  31   0.00000    -0.00000     0.00023    -0.00097     0.00002    -0.00000
  
  S  H  32   0.00000    -0.00000     0.00010    -0.00040     0.00003    -0.00000
  
  S  O  33  -0.00000     0.00197     0.00163     0.00028    -0.00022    -0.00001
 PX  O  33  -0.00000     0.00061    -0.00071     0.00020    -0.00017    -0.00001
 PY  O  33  -0.00000     0.00248     0.00090     0.00039    -0.00027    -0.00001
 PZ  O  33  -0.00000     0.00354     0.00266     0.00059    -0.00045    -0.00001
  
  S  H  34   0.00000    -0.00112    -0.00312    -0.00036     0.00022     0.00000
  
  S  H  35   0.00000    -0.00928    -0.00616    -0.00070     0.00055     0.00001
  
  S  O  36  -0.00000    -0.00124    -0.00006     0.00005    -0.00049    -0.00341
 PX  O  36   0.00000     0.00288     0.00015    -0.00012     0.00091     0.06414
 PY  O  36   0.00000     0.00049     0.00001     0.00000    -0.00016     0.89147
 PZ  O  36   0.00000     0.00153     0.00006    -0.00004    -0.00009    -0.44847
  
  S  H  37   0.00000     0.00362     0.00012    -0.00012     0.00095    -0.00003
  
  S  H  38   0.00000     0.00087     0.00005    -0.00007     0.00137    -0.00001
  
  S  O  39  -0.00000     0.00000    -0.00068     0.00021    -0.00002     0.00000
 PX  O  39   0.00000    -0.00001     0.00119    -0.00035     0.00003    -0.00000
 PY  O  39   0.00000    -0.00000     0.00037    -0.00006     0.00001    -0.00000
 PZ  O  39  -0.00000     0.00000    -0.00093     0.00015    -0.00002     0.00000
  
  S  H  40   0.00000    -0.00000     0.00076    -0.00034     0.00002    -0.00000
  
  S  H  41   0.00000    -0.00001     0.00180    -0.00072     0.00005    -0.00000
  
  S  O  42  -0.00000    -0.00063    -0.00053     0.00066    -0.01752    -0.00083
 PX  O  42  -0.00000    -0.00026     0.00032     0.00030    -0.29456    -0.00148
 PY  O  42   0.00000     0.00001     0.00017     0.00002    -0.38860     0.00005
 PZ  O  42  -0.00000    -0.00036    -0.00006     0.00034     0.87008    -0.00055
  
  S  H  43   0.00000     0.00102     0.00064    -0.00120     0.00118     0.00055
  
  S  H  44   0.00000     0.00138     0.00060    -0.00153     0.00177     0.00376
  
  S  O  45  -0.00000    -0.02177    -0.00071     0.00035    -0.00100    -0.00012
 PX  O  45   0.00000     0.02087     0.00090    -0.00049     0.00122     0.00009
 PY  O  45  -0.00000    -0.04103    -0.00161     0.00098    -0.00243    -0.00039
 PZ  O  45   0.00000     0.00013     0.00010     0.00001     0.00001    -0.00009
  
  S  H  46   0.00000     0.01312     0.00055    -0.00022     0.00061    -0.00019
  
  S  H  47   0.00000     0.10606     0.00225    -0.00117     0.00317     0.00079
  
  S  O  48  -0.00000     0.00000     0.00003     0.00012    -0.00003     0.00000
 PX  O  48  -0.00000     0.00000     0.00000    -0.00000     0.00000    -0.00000
 PY  O  48  -0.00000     0.00000     0.00006     0.00023    -0.00005     0.00000
 PZ  O  48   0.00000    -0.00000    -0.00004    -0.00008     0.00002    -0.00000
  
  S  H  49   0.00000    -0.00000    -0.00005    -0.00017     0.00003    -0.00000
  
  S  H  50   0.00000    -0.00001    -0.00010    -0.00042     0.00009    -0.00000
  
  S  O  51  -0.00000    -0.03367    -0.00797     0.00344    -0.01177    -0.00029
 PX  O  51  -0.00000     0.70028     0.00322    -0.00190    -0.01602    -0.00040
 PY  O  51  -0.00000    -0.54033    -0.00646     0.00366    -0.01888    -0.00041
 PZ  O  51   0.00000    -0.44981     0.01389    -0.00783    -0.00084     0.00002
  
  S  H  52   0.00000     0.00104     0.03685    -0.01132     0.00589     0.00019
  
  S  H  53   0.00000     0.00104     0.00567    -0.00298     0.05795     0.00115
  
  S  O  54  -0.00000     0.00000    -0.00057    -0.00074     0.00001    -0.00000
 PX  O  54   0.00000    -0.00000     0.00088     0.00091     0.00001     0.00000
 PY  O  54   0.00000    -0.00000     0.00082     0.00058    -0.00001     0.00000
 PZ  O  54   0.00000    -0.00000     0.00079     0.00067    -0.00002     0.00000
  
  S  H  55   0.00000    -0.00001     0.00150     0.00341    -0.00003     0.00000
  
  S  H  56   0.00000     0.00000     0.00079     0.00134    -0.00005     0.00000
  
  S  H  57  -0.00000    -0.00023     0.06042    -0.00280    -0.00011    -0.00001
  
  S  H  58  -0.00000     0.00015    -0.00342    -0.00541    -0.00062     0.00000




    ROOT NO.   73          74          75          76          77

           -11.70798   -11.63935   -11.01192   -10.92917   -10.85960
  
  
  S  C   1  -0.00001    -0.00010    -0.00054    -0.00037     0.00031
 PX  C   1  -0.00001     0.00012    -0.00201    -0.00181     0.00138
 PY  C   1   0.00000    -0.00011    -0.00227    -0.00222     0.00168
 PZ  C   1  -0.00000     0.00021    -0.00214    -0.00248     0.00195
  
  S  O   2  -0.00001     0.00011    -0.00031    -0.00031     0.00022
 PX  O   2  -0.00001     0.00007     0.00018     0.00016    -0.00011
 PY  O   2   0.00001    -0.00028     0.00006     0.00012    -0.00013
 PZ  O   2  -0.00003     0.00028     0.00137     0.00144    -0.00113
  
  S  N   3   0.00003     0.00001     0.00287     0.00218    -0.00157
 PX  N   3   0.00003    -0.00006     0.00275     0.00218    -0.00151
 PY  N   3  -0.00002    -0.00007    -0.00240    -0.00207     0.00154
 PZ  N   3   0.00001    -0.00005    -0.00008    -0.00015     0.00028
  
  S  H   4  -0.00004     0.00002    -0.00272    -0.00229     0.00177
  
  S  C   5  -0.00015     0.00004    -0.01623    -0.01534     0.01007
 PX  C   5   0.00002    -0.00001     0.00448     0.00238    -0.00197
 PY  C   5   0.00011    -0.00002     0.01518     0.01657    -0.01164
 PZ  C   5  -0.00010     0.00007     0.01460     0.01492    -0.01046
  
  S  H   6   0.00010     0.00000     0.00254    -0.00027    -0.00006
  
  S  C   7   0.00008     0.00005     0.00310     0.00311    -0.00227
 PX  C   7   0.00042    -0.00010    -0.00054    -0.00065     0.00130
 PY  C   7  -0.00008    -0.00008     0.01213     0.01164    -0.00518
 PZ  C   7  -0.00001     0.00002     0.00673     0.00677    -0.00380
  
  S  H   8   0.00030    -0.00002     0.01671     0.01903    -0.01307
  
  S  H   9   0.00001    -0.00000     0.00203     0.00109    -0.00126
  
  S  C  10   0.00036    -0.00000    -0.00205    -0.00139     0.00170
 PX  C  10   0.00086    -0.00001     0.24811     0.23807    -0.12031
 PY  C  10   0.00031    -0.00001     0.37745     0.36123    -0.18356
 PZ  C  10   0.00040    -0.00001     0.13223     0.13019    -0.06501
  
  S  C  11  -0.00038     0.00001     0.00026     0.00363    -0.00141
 PX  C  11   0.00037     0.00000     0.00525     0.37789    -0.00670
 PY  C  11  -0.00010     0.00001     0.00516     0.56781    -0.00681
 PZ  C  11  -0.00043     0.00001     0.00208     0.23176    -0.00354
  
  S  H  12   0.00014    -0.00000    -0.00083    -0.00155     0.00051
  
  S  C  13  -0.00015     0.00000    -0.00026    -0.00141     0.00004
 PX  C  13  -0.00024     0.00000    -0.12265     0.25372     0.25163
 PY  C  13  -0.00044     0.00001    -0.18035     0.36892     0.37087
 PZ  C  13  -0.00027     0.00000    -0.07167     0.14812     0.14492
  
  S  H  14  -0.00005     0.00000     0.00128    -0.00215    -0.00280
  
  S  C  15  -0.00027     0.00000    -0.00066    -0.00046     0.00667
 PX  C  15   0.00032    -0.00001    -0.00121    -0.00196     0.38925
 PY  C  15   0.00016    -0.00001    -0.00229    -0.00260     0.55589
 PZ  C  15  -0.00033     0.00000    -0.00272     0.00127     0.20544
  
  S  H  16   0.00011    -0.00000     0.00004     0.00050    -0.00347
  
  S  C  17  -0.00449     0.00003     0.00448    -0.00093    -0.00060
 PX  C  17   0.00293    -0.00003     0.38375    -0.00255     0.00044
 PY  C  17  -0.00128     0.00001     0.57409    -0.00681     0.00344
 PZ  C  17  -0.00462     0.00005     0.18893    -0.00068     0.00072
  
  S  H  18   0.00946    -0.00001    -0.00101    -0.00035     0.00030
  
  S  C  19  -0.00012    -0.00000     0.00041    -0.00118     0.00129
 PX  C  19   0.00026    -0.00000     0.25414    -0.12703     0.25807
 PY  C  19   0.00085    -0.00001     0.36107    -0.18132     0.37142
 PZ  C  19  -0.00032    -0.00000     0.12635    -0.06342     0.13212
  
  S  H  20   0.00065    -0.00000    -0.00172     0.00104    -0.00207
  
  S  O  21  -0.00000     0.00000    -0.00002     0.00001     0.00016
 PX  O  21  -0.00000     0.00000    -0.00003    -0.00000     0.00029
 PY  O  21   0.00000     0.00000     0.00002     0.00001    -0.00019
 PZ  O  21  -0.00000     0.00000     0.00000     0.00001     0.00004
  
  S  H  22   0.00000    -0.00000     0.00007    -0.00001    -0.00056
  
  S  H  23   0.00000    -0.00000     0.00007    -0.00002    -0.00054
  
  S  O  24   0.00016     0.00595     0.00011    -0.00008     0.00007
 PX  O  24  -0.00024    -0.00716     0.00006     0.00002     0.00001
 PY  O  24   0.00026     0.01000    -0.00002    -0.00011     0.00008
 PZ  O  24  -0.00009    -0.00108    -0.00013     0.00010    -0.00010
  
  S  H  25  -0.00020    -0.00331    -0.00062     0.00019    -0.00013
  
  S  H  26  -0.00072    -0.02657    -0.00013     0.00021    -0.00014
  
  S  O  27  -0.00156     0.00005     0.00535    -0.00163     0.00284
 PX  O  27   0.00015    -0.00007    -0.00062     0.00003    -0.00048
 PY  O  27  -0.00179     0.00001     0.00539    -0.00199     0.00326
 PZ  O  27  -0.00270     0.00008     0.00896    -0.00300     0.00514
  
  S  H  28   0.00120    -0.00010    -0.00684     0.00245    -0.00429
  
  S  H  29   0.00678    -0.00006    -0.02729     0.00727    -0.01207
  
  S  O  30  -0.00000    -0.00000    -0.00002    -0.00002     0.00001
 PX  O  30  -0.00000    -0.00000    -0.00000    -0.00002     0.00000
 PY  O  30  -0.00000    -0.00000    -0.00002    -0.00003     0.00001
 PZ  O  30  -0.00000     0.00000    -0.00001    -0.00001     0.00001
  
  S  H  31   0.00000     0.00000     0.00004     0.00010    -0.00003
  
  S  H  32   0.00000     0.00000     0.00004     0.00001    -0.00003
  
  S  O  33   0.00004     0.00393    -0.00001    -0.00002     0.00001
 PX  O  33   0.00000    -0.58812    -0.00000    -0.00001     0.00001
 PY  O  33   0.00001     0.72042    -0.00001    -0.00001     0.00001
 PZ  O  33   0.00004    -0.36627    -0.00002    -0.00003     0.00002
  
  S  H  34  -0.00005    -0.00022     0.00002     0.00003    -0.00002
  
  S  H  35  -0.00011    -0.00011     0.00003     0.00005    -0.00003
  
  S  O  36  -0.00304     0.00004     0.00000    -0.00000    -0.00000
 PX  O  36   0.00553    -0.00011    -0.00001     0.00001    -0.00000
 PY  O  36   0.00143    -0.00002    -0.00002     0.00001    -0.00001
 PZ  O  36   0.00367    -0.00006    -0.00005     0.00001    -0.00000
  
  S  H  37   0.01390    -0.00010    -0.00003     0.00002     0.00001
  
  S  H  38   0.00108    -0.00003     0.00008    -0.00002     0.00003
  
  S  O  39   0.00000    -0.00000     0.00003     0.00003    -0.00002
 PX  O  39  -0.00000     0.00000    -0.00006    -0.00005     0.00004
 PY  O  39  -0.00000     0.00000    -0.00001    -0.00001     0.00001
 PZ  O  39   0.00000    -0.00000     0.00004     0.00004    -0.00003
  
  S  H  40  -0.00000     0.00000    -0.00005    -0.00004     0.00003
  
  S  H  41  -0.00000     0.00000    -0.00012    -0.00009     0.00008
  
  S  O  42  -0.00004     0.00010    -0.00018    -0.00004     0.00004
 PX  O  42  -0.00005    -0.00005    -0.00022    -0.00003     0.00001
 PY  O  42   0.00004    -0.00005    -0.00007    -0.00003     0.00003
 PZ  O  42  -0.00002     0.00005    -0.00005     0.00000    -0.00001
  
  S  H  43   0.00002    -0.00012     0.00025     0.00009    -0.00009
  
  S  H  44   0.00010    -0.00013     0.00083     0.00007    -0.00009
  
  S  O  45  -0.00609     0.00070     0.00043    -0.00009     0.00008
 PX  O  45   0.67175    -0.00110    -0.00055     0.00011    -0.00006
 PY  O  45   0.34404     0.00035     0.00000    -0.00004     0.00002
 PZ  O  45  -0.65566    -0.00094    -0.00042     0.00009    -0.00017
  
  S  H  46   0.00031    -0.00161    -0.00192     0.00031    -0.00014
  
  S  H  47  -0.00034    -0.00118    -0.00102     0.00024    -0.00012
  
  S  O  48   0.00000     0.00000     0.00012     0.00078    -0.00011
 PX  O  48   0.00000    -0.00000     0.00012    -0.00019    -0.00002
 PY  O  48   0.00000     0.00000     0.00017     0.00086    -0.00012
 PZ  O  48  -0.00000    -0.00000    -0.00007    -0.00100     0.00011
  
  S  H  49  -0.00000    -0.00000    -0.00026    -0.00214     0.00033
  
  S  H  50  -0.00000    -0.00000    -0.00029    -0.00314     0.00047
  
  S  O  51  -0.00014     0.00119    -0.00010    -0.00013     0.00010
 PX  O  51  -0.00011    -0.00026     0.00003     0.00004    -0.00003
 PY  O  51  -0.00016     0.00089    -0.00019    -0.00013     0.00009
 PZ  O  51   0.00013    -0.00188     0.00022     0.00027    -0.00021
  
  S  H  52   0.00036    -0.00450     0.00031     0.00047    -0.00034
  
  S  H  53   0.00032    -0.00129     0.00021     0.00016    -0.00013
  
  S  O  54   0.00000    -0.00000     0.00002     0.00001    -0.00001
 PX  O  54  -0.00000     0.00000    -0.00005    -0.00004     0.00003
 PY  O  54  -0.00000     0.00000    -0.00002    -0.00001     0.00001
 PZ  O  54  -0.00000     0.00000    -0.00002    -0.00001     0.00001
  
  S  H  55  -0.00000     0.00000    -0.00009    -0.00006     0.00006
  
  S  H  56  -0.00000     0.00000    -0.00001     0.00001     0.00000
  
  S  H  57   0.00001     0.00039     0.00081     0.00069    -0.00052
  
  S  H  58  -0.00001     0.00001     0.00233     0.00272    -0.00119

          BONDING CONTRIBUTION OF EACH M.O.

  1.7863  1.6596  1.9151  1.8575  1.7319  0.0494  1.7106  1.6998  1.7375  1.7502
  0.0000  1.6715  0.0008  1.6840  1.6973  1.7435  1.6920  0.0000  1.7218  0.0002
  1.9947  1.7054  0.0001  1.9940  1.6289  1.6603  1.6277  1.9992  1.7225  1.6988
  0.0001  1.6224  1.9969  1.9969  1.9982  1.6168  0.0285  1.5923  1.6774  1.6129
  0.0411  1.8957  0.0544  1.6314  0.0038  0.0003  1.6283  0.0063  1.9954  1.9547
  1.9536  1.9421  1.9459  1.9416  1.9483  1.9915  1.9466  1.9609  1.9493  1.1498
  0.0001  0.0008  0.0003  0.0001  0.0001  0.0375  0.0001  0.0899  0.2919  0.9567
  0.0310  0.0001  0.0029  0.0060  1.9974  1.9754  2.0113 -2.0167 -1.9874 -2.0313
 -1.9250 -2.0013 -1.7303 -1.7196 -1.7697 -1.7294 -1.9205 -1.9988 -1.6921 -1.7331
 -1.7110 -1.8252 -1.7911 -1.9172 -1.8181 -1.8570 -1.8714 -1.7339 -1.9530 -1.8107
 -1.9633 -2.0021 -1.7858 -1.7460 -1.8960 -1.7301 -1.9235 -1.8045 -1.8529 -1.9616
 -1.9382 -1.9356 -1.7760 -1.9757 -1.6760 -1.9363 -1.7303 -1.9538 -1.9064 -1.6768
 -1.8346 -1.6588 -1.6946 -1.6585 -1.6734 -1.6909 -1.7001

           DATA FOR GRAPH WRITTEN TO DISK

 **********************
 *                    *
 * JOB ENDED NORMALLY *
 *                    *
 **********************



 TOTAL JOB TIME:             0.70 SECONDS

 == MOPAC DONE ==
