 *******************************************************************************
 ** Site#: 34139        For non-commercial use only    Version 20.070L 64BITS **
 *******************************************************************************
 ** Cite this program as: MOPAC2016, Version: 20.070L, James J. P. Stewart,   **
 ** Stewart Computational Chemistry, web: HTTP://OpenMOPAC.net. Days left: 322**
 *******************************************************************************
 **                                                                           **
 **                                MOPAC2016                                  **
 **                                                                           **
 *******************************************************************************

                              PM7 CALCULATION RESULTS

 *******************************************************************************
 *  CALCULATION DONE:                                Thu Apr 23 14:33:14 2020  *
 *  PM7        - The PM7 Hamiltonian to be used
 *  QMMM       - Generate energies and gradients for use in MM codes
 *  DIPOLE     - PRINT DIPOLE INSTEAD OF ENERGY IN TRAJECTORIES
 *  GEO-OK     - OVERRIDE INTERATOMIC DISTANCE AND OTHER SAFETY CHECKS
 *
 *
 *
 *                 CHARGE ON SYSTEM = 0
 *
 *
 *
 *  LET        - OVERRIDE SOME SAFETY CHECKS
 *  XYZ        - CARTESIAN COORDINATE SYSTEM TO BE USED
 *  FORCE      - FORCE CALCULATION SPECIFIED
 *  1SCF       - DO 1 SCF AND THEN STOP 
 *  T=         - A TIME OF      2.0 MINUTES REQUESTED
 *  DUMP=N     - RESTART FILE WRITTEN EVERY  7200.000 SECONDS
 *  CUTOFF=    - CUTOFF FOR NDDO AND DIPOLE INTERACTIONS =  9.00A
 *  AUX        - OUTPUT AUXILIARY INFORMATION
 *  GRADIENTS  - ALL GRADIENTS TO BE PRINTED
 *  VECTORS    - FINAL EIGENVECTORS TO BE PRINTED
 *  EIGEN      - CONVERT LMO's INTO EIGENVECTORS
 *  LARGE      - EXPANDED OUTPUT TO BE PRINTED
 *  AIGOUT     - IN ARC FILE, INCLUDE AB-INITIO GEOMETRY
 *  GRAPH      - GENERATE FILE FOR GRAPHICS
 *  LOCALIZE   - LOCALIZED ORBITALS TO BE PRINTED
 *  PI         - BONDS MATRIX, SPLIT INTO SIGMA-PI-DELL COMPONENTS, TO BE PRINTED
 *******************************************************************************
PM7 XYZ T=2M 1SCF LOCALIZE AIGOUT GRAPH GRAPHF LARGE DIPOLE PI FORCE CUTOFF=9.0 AUX LET GRAD QMMM GEO-OK EIGEN VECTORS CHARGE=0
 Test System

   ATOM   CHEMICAL          X               Y               Z
  NUMBER   SYMBOL      (ANGSTROMS)     (ANGSTROMS)     (ANGSTROMS)
 
     1       C         -3.50746200  *   0.42574000  *   0.58528900  *
     2       O         -3.69066700  *  -0.68302100  *   1.09262600  *
     3       N         -2.27769000  *   0.78166500  *   0.09417600  *
     4       H         -2.19587000  *   1.73318600  *  -0.36117700  *
     5       C         -1.00509000  *   0.04210900  *   0.34978200  *
     6       H         -0.97804300  *  -0.20042600  *   1.46707800  *
     7       C         -0.95027500  *  -1.16914200  *  -0.58464600  *
     8       H         -1.83519400  *  -1.78594500  *  -0.14771100  *
     9       H         -1.19450700  *  -0.87487300  *  -1.61399300  *
    10       C          0.22799300  *  -2.03143300  *  -0.49164800  *
    11       C          1.19884300  *  -2.22156400  *  -1.51910600  *
    12       H          1.05282300  *  -1.71553900  *  -2.46436000  *
    13       C          2.25966700  *  -3.06826000  *  -1.35047300  *
    14       H          3.00992900  *  -3.08754200  *  -2.09466400  *
    15       C          2.46471000  *  -3.80930000  *  -0.21524800  *
    16       H          3.37334200  *  -4.47808900  *  -0.16162200  *
    17       C          0.42936600  *  -2.75546100  *   0.66814200  *
    18       H         -0.19097200  *  -2.50526600  *   1.54947900  *
    19       C          1.50613400  *  -3.64347300  *   0.86038200  *
    20       H          1.71713200  *  -4.06213300  *   1.83585800  *
    21       O          4.27449500  *  -6.63838700  *  -1.37924100  *
    22       H          5.17687800  *  -6.31104100  *  -1.20478300  *
    23       H          4.36208800  *  -7.60348600  *  -1.22802900  *
    24       O         -3.22317200  *  -3.49658200  *   1.37415000  *
    25       H         -3.26969000  *  -3.87851800  *   0.50473000  *
    26       H         -3.38115900  *  -2.53024000  *   1.27943900  *
    27       O         -0.57956900  *  -5.58722100  *   0.34810200  *
    28       H         -0.95378500  *  -6.33205800  *   0.94368300  *
    29       H         -1.06786600  *  -4.77394700  *   0.38131600  *
    30       O         -1.99506300  *   0.32002100  *  -3.61079200  *
    31       H         -1.24709200  *   0.75608300  *  -3.16457800  *
    32       H         -2.09061900  *   0.83338000  *  -4.49512600  *
    33       O         -5.76498200  *  -1.90569300  *   2.24062100  *
    34       H         -6.36500000  *  -1.68792300  *   2.92324300  *
    35       H         -4.96255200  *  -1.45470700  *   2.45753800  *
    36       O          0.95896700  *  -3.28662400  *   4.46893200  *
    37       H          0.58139400  *  -3.62814300  *   3.64699800  *
    38       H          0.33119900  *  -2.87724600  *   5.04989200  *
    39       O         -2.04399600  *   3.67591500  *  -2.33354200  *
    40       H         -2.61766100  *   3.41538300  *  -3.05474000  *
    41       H         -2.44354300  *   3.54296600  *  -1.45852800  *
    42       O         -0.44847000  *   0.72123200  *   3.47654800  *
    43       H         -0.51871300  *   1.56178600  *   3.91883100  *
    44       H          0.42075800  *   0.26493100  *   3.69789100  *
    45       O         -1.26063200  *  -3.55069400  *   3.21979700  *
    46       H         -1.82873300  *  -3.52745000  *   2.41832000  *
    47       H         -1.33293300  *  -2.63701300  *   3.62893400  *
    48       O         -1.72125700  *  -2.71853200  *  -2.89746500  *
    49       H         -1.14762100  *  -2.52475100  *  -3.67852200  *
    50       H         -2.21060100  *  -1.86413500  *  -2.89801800  *
    51       O         -2.29941200  *  -1.13781800  *   3.32810400  *
    52       H         -2.60712600  *  -0.87109800  *   2.43967400  *
    53       H         -1.72877500  *  -0.42463000  *   3.59741300  *
    54       O         -0.73394700  *   4.48035300  *   1.16052400  *
    55       H         -1.66026900  *   4.36961700  *   1.54618900  *
    56       H         -0.83454900  *   4.21416600  *   0.21107900  *
    57       H         -4.35318400  *   1.10272700  *   0.46469000  *
    58       H         -0.19897600  *   0.75076700  *   0.15982500  *
 


          CARTESIAN COORDINATES 

    NO.       ATOM           X           Y           Z

     1         C         -3.5075      0.4257      0.5853
     2         O         -3.6907     -0.6830      1.0926
     3         N         -2.2777      0.7817      0.0942
     4         H         -2.1959      1.7332     -0.3612
     5         C         -1.0051      0.0421      0.3498
     6         H         -0.9780     -0.2004      1.4671
     7         C         -0.9503     -1.1691     -0.5846
     8         H         -1.8352     -1.7859     -0.1477
     9         H         -1.1945     -0.8749     -1.6140
    10         C          0.2280     -2.0314     -0.4916
    11         C          1.1988     -2.2216     -1.5191
    12         H          1.0528     -1.7155     -2.4644
    13         C          2.2597     -3.0683     -1.3505
    14         H          3.0099     -3.0875     -2.0947
    15         C          2.4647     -3.8093     -0.2152
    16         H          3.3733     -4.4781     -0.1616
    17         C          0.4294     -2.7555      0.6681
    18         H         -0.1910     -2.5053      1.5495
    19         C          1.5061     -3.6435      0.8604
    20         H          1.7171     -4.0621      1.8359
    21         O          4.2745     -6.6384     -1.3792
    22         H          5.1769     -6.3110     -1.2048
    23         H          4.3621     -7.6035     -1.2280
    24         O         -3.2232     -3.4966      1.3741
    25         H         -3.2697     -3.8785      0.5047
    26         H         -3.3812     -2.5302      1.2794
    27         O         -0.5796     -5.5872      0.3481
    28         H         -0.9538     -6.3321      0.9437
    29         H         -1.0679     -4.7739      0.3813
    30         O         -1.9951      0.3200     -3.6108
    31         H         -1.2471      0.7561     -3.1646
    32         H         -2.0906      0.8334     -4.4951
    33         O         -5.7650     -1.9057      2.2406
    34         H         -6.3650     -1.6879      2.9232
    35         H         -4.9626     -1.4547      2.4575
    36         O          0.9590     -3.2866      4.4689
    37         H          0.5814     -3.6281      3.6470
    38         H          0.3312     -2.8772      5.0499
    39         O         -2.0440      3.6759     -2.3335
    40         H         -2.6177      3.4154     -3.0547
    41         H         -2.4435      3.5430     -1.4585
    42         O         -0.4485      0.7212      3.4765
    43         H         -0.5187      1.5618      3.9188
    44         H          0.4208      0.2649      3.6979
    45         O         -1.2606     -3.5507      3.2198
    46         H         -1.8287     -3.5274      2.4183
    47         H         -1.3329     -2.6370      3.6289
    48         O         -1.7213     -2.7185     -2.8975
    49         H         -1.1476     -2.5248     -3.6785
    50         H         -2.2106     -1.8641     -2.8980
    51         O         -2.2994     -1.1378      3.3281
    52         H         -2.6071     -0.8711      2.4397
    53         H         -1.7288     -0.4246      3.5974
    54         O         -0.7339      4.4804      1.1605
    55         H         -1.6603      4.3696      1.5462
    56         H         -0.8345      4.2142      0.2111
    57         H         -4.3532      1.1027      0.4647
    58         H         -0.1990      0.7508      0.1598

 General Reference for PM7:
 "Optimization of Parameters for Semiempirical Methods VI: More Modifications to the 
 NDDO Approximations and Re-optimization of Parameters", J. J. P. Stewart, J. Mol. Mod., 1:32, 19 (2013)
 http://www.springerlink.com/openurl.asp?genre=article&id=doi:10.1007/s00894-012-1667-x

           Empirical Formula: C9 H35 N O13  =    58 atoms



      MOLECULAR POINT GROUP   :   C1  


      RHF CALCULATION, NO. OF DOUBLY OCCUPIED LEVELS = 77


 -------------------------------------------------------------------------------
 PM7 XYZ T=2M 1SCF LOCALIZE AIGOUT GRAPH GRAPHF LARGE DIPOLE PI FORCE CUTOFF=9.0 AUX LET GRAD QMMM GEO-OK EIGEN VECTORS CHARGE=0
 Test System



     1SCF WAS SPECIFIED, SO BFGS WAS NOT USED                 
     SCF FIELD WAS ACHIEVED                                   


                              PM7 CALCULATION
                                                       MOPAC2016 (Version: 20.070L)
                                                       Thu Apr 23 14:33:14 2020
                                                       No. of days remaining = 322




          FINAL HEAT OF FORMATION =       -942.46706 KCAL/MOL =   -3943.28216 KJ/MOL


          TOTAL ENERGY            =      -5615.60587 EV
          ELECTRONIC ENERGY       =     -40947.71493 EV  POINT GROUP:     C1  
          CORE-CORE REPULSION     =      35332.10906 EV
          COSMO AREA              =        431.47 SQUARE ANGSTROMS
          COSMO VOLUME            =        535.12 CUBIC ANGSTROMS

          GRADIENT NORM           =        216.75098 = 28.46080 PER ATOM
          IONIZATION POTENTIAL    =          7.924321 EV
          HOMO LUMO ENERGIES (EV) =         -7.924  1.472
          NO. OF FILLED LEVELS    =         77
          MOLECULAR WEIGHT        =        365.3744

          MOLECULAR DIMENSIONS (Angstroms)

            Atom       Atom       Distance
            H    55    H    23    13.68650
            H    32    H    38    10.25140
            H    22    H    34     8.32821


          SCF CALCULATIONS        =          1
 
          WALL-CLOCK TIME         =          0.133 SECONDS
          COMPUTATION TIME        =          0.131 SECONDS

          LARGEST ATOMIC GRADIENTS

          Atom     Label                     Cartesian Gradients           Cartesian Coordinates       |Gradient|
                                           X          Y          Z        X          Y          Z

            15       C                  25.003     13.118    -63.304    2.46471   -3.80930   -0.21525     69.315
            11       C                  58.445    -28.101    -11.367    1.19884   -2.22156   -1.51911     65.838
            19       C                 -32.837    -15.992     47.815    1.50613   -3.64347    0.86038     60.169
            10       C                 -44.693     15.434     26.954    0.22799   -2.03143   -0.49165     54.426
            28       H                  -8.651    -41.409     22.006   -0.95379   -6.33206    0.94368     47.685
            17       C                 -22.449     11.071    -37.966    0.42937   -2.75546    0.66814     45.475
             7       C                  37.664      1.501    -23.545   -0.95028   -1.16914   -0.58465     44.443
            54       O                  37.607     16.466     15.844   -0.73395    4.48035    1.16052     44.005
            32       H                  -3.650     22.650    -32.694   -2.09062    0.83338   -4.49513     39.941
            30       O                  -4.120    -27.543     27.872   -1.99506    0.32002   -3.61079     39.401



       FINAL  POINT  AND  DERIVATIVES

   PARAMETER     ATOM    TYPE            VALUE        GRADIENT
      1          1  C    CARTESIAN X    -3.507462    -25.629281  KCAL/ANGSTROM
      2          1  C    CARTESIAN Y     0.425740     19.349291  KCAL/ANGSTROM
      3          1  C    CARTESIAN Z     0.585289     12.816553  KCAL/ANGSTROM
      4          2  O    CARTESIAN X    -3.690667     -9.538497  KCAL/ANGSTROM
      5          2  O    CARTESIAN Y    -0.683021    -11.779099  KCAL/ANGSTROM
      6          2  O    CARTESIAN Z     1.092626     -1.445571  KCAL/ANGSTROM
      7          3  N    CARTESIAN X    -2.277690     12.996548  KCAL/ANGSTROM
      8          3  N    CARTESIAN Y     0.781665    -27.237943  KCAL/ANGSTROM
      9          3  N    CARTESIAN Z     0.094176     -4.543797  KCAL/ANGSTROM
     10          4  H    CARTESIAN X    -2.195870     -8.399937  KCAL/ANGSTROM
     11          4  H    CARTESIAN Y     1.733186     26.290983  KCAL/ANGSTROM
     12          4  H    CARTESIAN Z    -0.361177     -7.935120  KCAL/ANGSTROM
     13          5  C    CARTESIAN X    -1.005090     25.623962  KCAL/ANGSTROM
     14          5  C    CARTESIAN Y     0.042109    -19.687531  KCAL/ANGSTROM
     15          5  C    CARTESIAN Z     0.349782     -8.694376  KCAL/ANGSTROM
     16          6  H    CARTESIAN X    -0.978043     -4.541560  KCAL/ANGSTROM
     17          6  H    CARTESIAN Y    -0.200426      6.751649  KCAL/ANGSTROM
     18          6  H    CARTESIAN Z     1.467078     18.620549  KCAL/ANGSTROM
     19          7  C    CARTESIAN X    -0.950275     37.663674  KCAL/ANGSTROM
     20          7  C    CARTESIAN Y    -1.169142      1.500686  KCAL/ANGSTROM
     21          7  C    CARTESIAN Z    -0.584646    -23.545009  KCAL/ANGSTROM
     22          8  H    CARTESIAN X    -1.835194     -8.145449  KCAL/ANGSTROM
     23          8  H    CARTESIAN Y    -1.785945      0.632666  KCAL/ANGSTROM
     24          8  H    CARTESIAN Z    -0.147711     23.012737  KCAL/ANGSTROM
     25          9  H    CARTESIAN X    -1.194507     -0.362457  KCAL/ANGSTROM
     26          9  H    CARTESIAN Y    -0.874873      1.889013  KCAL/ANGSTROM
     27          9  H    CARTESIAN Z    -1.613993      2.733949  KCAL/ANGSTROM
     28         10  C    CARTESIAN X     0.227993    -44.692973  KCAL/ANGSTROM
     29         10  C    CARTESIAN Y    -2.031433     15.434175  KCAL/ANGSTROM
     30         10  C    CARTESIAN Z    -0.491648     26.953710  KCAL/ANGSTROM
     31         11  C    CARTESIAN X     1.198843     58.444930  KCAL/ANGSTROM
     32         11  C    CARTESIAN Y    -2.221564    -28.100656  KCAL/ANGSTROM
     33         11  C    CARTESIAN Z    -1.519106    -11.367394  KCAL/ANGSTROM
     34         12  H    CARTESIAN X     1.052823     -0.815225  KCAL/ANGSTROM
     35         12  H    CARTESIAN Y    -1.715539     -3.621051  KCAL/ANGSTROM
     36         12  H    CARTESIAN Z    -2.464360      1.117623  KCAL/ANGSTROM
     37         13  C    CARTESIAN X     2.259667    -16.587867  KCAL/ANGSTROM
     38         13  C    CARTESIAN Y    -3.068260     -0.028330  KCAL/ANGSTROM
     39         13  C    CARTESIAN Z    -1.350473      3.977105  KCAL/ANGSTROM
     40         14  H    CARTESIAN X     3.009929    -14.957433  KCAL/ANGSTROM
     41         14  H    CARTESIAN Y    -3.087542      5.423448  KCAL/ANGSTROM
     42         14  H    CARTESIAN Z    -2.094664     22.422211  KCAL/ANGSTROM
     43         15  C    CARTESIAN X     2.464710     25.002579  KCAL/ANGSTROM
     44         15  C    CARTESIAN Y    -3.809300     13.117711  KCAL/ANGSTROM
     45         15  C    CARTESIAN Z    -0.215248    -63.304145  KCAL/ANGSTROM
     46         16  H    CARTESIAN X     3.373342     25.411088  KCAL/ANGSTROM
     47         16  H    CARTESIAN Y    -4.478089    -10.993800  KCAL/ANGSTROM
     48         16  H    CARTESIAN Z    -0.161622     -6.574803  KCAL/ANGSTROM
     49         17  C    CARTESIAN X     0.429366    -22.448710  KCAL/ANGSTROM
     50         17  C    CARTESIAN Y    -2.755461     11.070807  KCAL/ANGSTROM
     51         17  C    CARTESIAN Z     0.668142    -37.966289  KCAL/ANGSTROM
     52         18  H    CARTESIAN X    -0.190972     -0.006252  KCAL/ANGSTROM
     53         18  H    CARTESIAN Y    -2.505266      9.544424  KCAL/ANGSTROM
     54         18  H    CARTESIAN Z     1.549479      6.040359  KCAL/ANGSTROM
     55         19  C    CARTESIAN X     1.506134    -32.836692  KCAL/ANGSTROM
     56         19  C    CARTESIAN Y    -3.643473    -15.992305  KCAL/ANGSTROM
     57         19  C    CARTESIAN Z     0.860382     47.815333  KCAL/ANGSTROM
     58         20  H    CARTESIAN X     1.717132      4.628754  KCAL/ANGSTROM
     59         20  H    CARTESIAN Y    -4.062133      8.425496  KCAL/ANGSTROM
     60         20  H    CARTESIAN Z     1.835858      1.662311  KCAL/ANGSTROM
     61         21  O    CARTESIAN X     4.274495    -19.421259  KCAL/ANGSTROM
     62         21  O    CARTESIAN Y    -6.638387     15.038871  KCAL/ANGSTROM
     63         21  O    CARTESIAN Z    -1.379241     -6.135905  KCAL/ANGSTROM
     64         22  H    CARTESIAN X     5.176878     10.894559  KCAL/ANGSTROM
     65         22  H    CARTESIAN Y    -6.311041     -1.168376  KCAL/ANGSTROM
     66         22  H    CARTESIAN Z    -1.204783      2.726488  KCAL/ANGSTROM
     67         23  H    CARTESIAN X     4.362088      7.608450  KCAL/ANGSTROM
     68         23  H    CARTESIAN Y    -7.603486    -14.589838  KCAL/ANGSTROM
     69         23  H    CARTESIAN Z    -1.228029      3.168327  KCAL/ANGSTROM
     70         24  O    CARTESIAN X    -3.223172    -11.366047  KCAL/ANGSTROM
     71         24  O    CARTESIAN Y    -3.496582    -15.609099  KCAL/ANGSTROM
     72         24  O    CARTESIAN Z     1.374150      3.346763  KCAL/ANGSTROM
     73         25  H    CARTESIAN X    -3.269690      3.080933  KCAL/ANGSTROM
     74         25  H    CARTESIAN Y    -3.878518      1.679540  KCAL/ANGSTROM
     75         25  H    CARTESIAN Z     0.504730      3.637540  KCAL/ANGSTROM
     76         26  H    CARTESIAN X    -3.381159      3.513521  KCAL/ANGSTROM
     77         26  H    CARTESIAN Y    -2.530240     12.884674  KCAL/ANGSTROM
     78         26  H    CARTESIAN Z     1.279439     -4.620161  KCAL/ANGSTROM
     79         27  O    CARTESIAN X    -0.579569      5.574168  KCAL/ANGSTROM
     80         27  O    CARTESIAN Y    -5.587221     32.967645  KCAL/ANGSTROM
     81         27  O    CARTESIAN Z     0.348102    -14.988448  KCAL/ANGSTROM
     82         28  H    CARTESIAN X    -0.953785     -8.650707  KCAL/ANGSTROM
     83         28  H    CARTESIAN Y    -6.332058    -41.409407  KCAL/ANGSTROM
     84         28  H    CARTESIAN Z     0.943683     22.005663  KCAL/ANGSTROM
     85         29  H    CARTESIAN X    -1.067866      2.231231  KCAL/ANGSTROM
     86         29  H    CARTESIAN Y    -4.773947      8.915132  KCAL/ANGSTROM
     87         29  H    CARTESIAN Z     0.381316     -8.938384  KCAL/ANGSTROM
     88         30  O    CARTESIAN X    -1.995063     -4.120249  KCAL/ANGSTROM
     89         30  O    CARTESIAN Y     0.320021    -27.543104  KCAL/ANGSTROM
     90         30  O    CARTESIAN Z    -3.610792     27.871621  KCAL/ANGSTROM
     91         31  H    CARTESIAN X    -1.247092      7.265027  KCAL/ANGSTROM
     92         31  H    CARTESIAN Y     0.756083      5.637691  KCAL/ANGSTROM
     93         31  H    CARTESIAN Z    -3.164578      4.466129  KCAL/ANGSTROM
     94         32  H    CARTESIAN X    -2.090619     -3.650342  KCAL/ANGSTROM
     95         32  H    CARTESIAN Y     0.833380     22.650169  KCAL/ANGSTROM
     96         32  H    CARTESIAN Z    -4.495126    -32.693990  KCAL/ANGSTROM
     97         33  O    CARTESIAN X    -5.764982      4.286483  KCAL/ANGSTROM
     98         33  O    CARTESIAN Y    -1.905693     -1.434471  KCAL/ANGSTROM
     99         33  O    CARTESIAN Z     2.240621      1.614851  KCAL/ANGSTROM
    100         34  H    CARTESIAN X    -6.365000     10.285908  KCAL/ANGSTROM
    101         34  H    CARTESIAN Y    -1.687923      2.172080  KCAL/ANGSTROM
    102         34  H    CARTESIAN Z     2.923243     -8.499811  KCAL/ANGSTROM
    103         35  H    CARTESIAN X    -4.962552     -9.771117  KCAL/ANGSTROM
    104         35  H    CARTESIAN Y    -1.454707      1.357985  KCAL/ANGSTROM
    105         35  H    CARTESIAN Z     2.457538      7.179412  KCAL/ANGSTROM
    106         36  O    CARTESIAN X     0.958967    -19.821316  KCAL/ANGSTROM
    107         36  O    CARTESIAN Y    -3.286624     -5.182160  KCAL/ANGSTROM
    108         36  O    CARTESIAN Z     4.468932     -0.864712  KCAL/ANGSTROM
    109         37  H    CARTESIAN X     0.581394     10.963700  KCAL/ANGSTROM
    110         37  H    CARTESIAN Y    -3.628143     -2.668308  KCAL/ANGSTROM
    111         37  H    CARTESIAN Z     3.646998    -11.422759  KCAL/ANGSTROM
    112         38  H    CARTESIAN X     0.331199      5.283495  KCAL/ANGSTROM
    113         38  H    CARTESIAN Y    -2.877246      8.845273  KCAL/ANGSTROM
    114         38  H    CARTESIAN Z     5.049892      9.582669  KCAL/ANGSTROM
    115         39  O    CARTESIAN X    -2.043996      2.234141  KCAL/ANGSTROM
    116         39  O    CARTESIAN Y     3.675915     14.183405  KCAL/ANGSTROM
    117         39  O    CARTESIAN Z    -2.333542    -14.856424  KCAL/ANGSTROM
    118         40  H    CARTESIAN X    -2.617661      0.722814  KCAL/ANGSTROM
    119         40  H    CARTESIAN Y     3.415383     -5.837758  KCAL/ANGSTROM
    120         40  H    CARTESIAN Z    -3.054740     -5.800166  KCAL/ANGSTROM
    121         41  H    CARTESIAN X    -2.443543     -0.312850  KCAL/ANGSTROM
    122         41  H    CARTESIAN Y     3.542966     -7.513691  KCAL/ANGSTROM
    123         41  H    CARTESIAN Z    -1.458528     20.224199  KCAL/ANGSTROM
    124         42  O    CARTESIAN X    -0.448470    -20.113848  KCAL/ANGSTROM
    125         42  O    CARTESIAN Y     0.721232      7.324171  KCAL/ANGSTROM
    126         42  O    CARTESIAN Z     3.476548     -3.489974  KCAL/ANGSTROM
    127         43  H    CARTESIAN X    -0.518713     -3.874381  KCAL/ANGSTROM
    128         43  H    CARTESIAN Y     1.561786      2.540267  KCAL/ANGSTROM
    129         43  H    CARTESIAN Z     3.918831     -1.306338  KCAL/ANGSTROM
    130         44  H    CARTESIAN X     0.420758     21.164375  KCAL/ANGSTROM
    131         44  H    CARTESIAN Y     0.264931    -12.863152  KCAL/ANGSTROM
    132         44  H    CARTESIAN Z     3.697891      3.719782  KCAL/ANGSTROM
    133         45  O    CARTESIAN X    -1.260632     -4.120591  KCAL/ANGSTROM
    134         45  O    CARTESIAN Y    -3.550694    -17.333159  KCAL/ANGSTROM
    135         45  O    CARTESIAN Z     3.219797     -0.108262  KCAL/ANGSTROM
    136         46  H    CARTESIAN X    -1.828733      4.840635  KCAL/ANGSTROM
    137         46  H    CARTESIAN Y    -3.527450      1.392556  KCAL/ANGSTROM
    138         46  H    CARTESIAN Z     2.418320    -14.465027  KCAL/ANGSTROM
    139         47  H    CARTESIAN X    -1.332933     13.007882  KCAL/ANGSTROM
    140         47  H    CARTESIAN Y    -2.637013     21.853721  KCAL/ANGSTROM
    141         47  H    CARTESIAN Z     3.628934     18.239110  KCAL/ANGSTROM
    142         48  O    CARTESIAN X    -1.721257      1.571282  KCAL/ANGSTROM
    143         48  O    CARTESIAN Y    -2.718532    -26.060209  KCAL/ANGSTROM
    144         48  O    CARTESIAN Z    -2.897465     24.476056  KCAL/ANGSTROM
    145         49  H    CARTESIAN X    -1.147621      1.253238  KCAL/ANGSTROM
    146         49  H    CARTESIAN Y    -2.524751     15.675576  KCAL/ANGSTROM
    147         49  H    CARTESIAN Z    -3.678522    -13.062483  KCAL/ANGSTROM
    148         50  H    CARTESIAN X    -2.210601      0.531845  KCAL/ANGSTROM
    149         50  H    CARTESIAN Y    -1.864135     10.709369  KCAL/ANGSTROM
    150         50  H    CARTESIAN Z    -2.898018     -9.013951  KCAL/ANGSTROM
    151         51  O    CARTESIAN X    -2.299412      2.229288  KCAL/ANGSTROM
    152         51  O    CARTESIAN Y    -1.137818     -6.925433  KCAL/ANGSTROM
    153         51  O    CARTESIAN Z     3.328104      1.935253  KCAL/ANGSTROM
    154         52  H    CARTESIAN X    -2.607126      6.028698  KCAL/ANGSTROM
    155         52  H    CARTESIAN Y    -0.871098     14.736264  KCAL/ANGSTROM
    156         52  H    CARTESIAN Z     2.439674     -4.612696  KCAL/ANGSTROM
    157         53  H    CARTESIAN X    -1.728775     -8.792549  KCAL/ANGSTROM
    158         53  H    CARTESIAN Y    -0.424630     -5.998171  KCAL/ANGSTROM
    159         53  H    CARTESIAN Z     3.597413     -4.551258  KCAL/ANGSTROM
    160         54  O    CARTESIAN X    -0.733947     37.606829  KCAL/ANGSTROM
    161         54  O    CARTESIAN Y     4.480353     16.466177  KCAL/ANGSTROM
    162         54  O    CARTESIAN Z     1.160524     15.843877  KCAL/ANGSTROM
    163         55  H    CARTESIAN X    -1.660269    -28.733945  KCAL/ANGSTROM
    164         55  H    CARTESIAN Y     4.369617     -7.332512  KCAL/ANGSTROM
    165         55  H    CARTESIAN Z     1.546189      5.366834  KCAL/ANGSTROM
    166         56  H    CARTESIAN X    -0.834549     -8.941456  KCAL/ANGSTROM
    167         56  H    CARTESIAN Y     4.214166    -11.329443  KCAL/ANGSTROM
    168         56  H    CARTESIAN Z     0.211079    -21.860086  KCAL/ANGSTROM
    169         57  H    CARTESIAN X    -4.353184      5.862077  KCAL/ANGSTROM
    170         57  H    CARTESIAN Y     1.102727     -4.334694  KCAL/ANGSTROM
    171         57  H    CARTESIAN Z     0.464690      2.477588  KCAL/ANGSTROM
    172         58  H    CARTESIAN X    -0.198976    -17.155579  KCAL/ANGSTROM
    173         58  H    CARTESIAN Y     0.750767     -3.887012  KCAL/ANGSTROM
    174         58  H    CARTESIAN Z     0.159825      1.616723  KCAL/ANGSTROM




   ATOM   CHEMICAL          X               Y               Z
  NUMBER   SYMBOL      (ANGSTROMS)     (ANGSTROMS)     (ANGSTROMS)
 
     1       C         -3.50746200  *   0.42574000  *   0.58528900  *
     2       O         -3.69066700  *  -0.68302100  *   1.09262600  *
     3       N         -2.27769000  *   0.78166500  *   0.09417600  *
     4       H         -2.19587000  *   1.73318600  *  -0.36117700  *
     5       C         -1.00509000  *   0.04210900  *   0.34978200  *
     6       H         -0.97804300  *  -0.20042600  *   1.46707800  *
     7       C         -0.95027500  *  -1.16914200  *  -0.58464600  *
     8       H         -1.83519400  *  -1.78594500  *  -0.14771100  *
     9       H         -1.19450700  *  -0.87487300  *  -1.61399300  *
    10       C          0.22799300  *  -2.03143300  *  -0.49164800  *
    11       C          1.19884300  *  -2.22156400  *  -1.51910600  *
    12       H          1.05282300  *  -1.71553900  *  -2.46436000  *
    13       C          2.25966700  *  -3.06826000  *  -1.35047300  *
    14       H          3.00992900  *  -3.08754200  *  -2.09466400  *
    15       C          2.46471000  *  -3.80930000  *  -0.21524800  *
    16       H          3.37334200  *  -4.47808900  *  -0.16162200  *
    17       C          0.42936600  *  -2.75546100  *   0.66814200  *
    18       H         -0.19097200  *  -2.50526600  *   1.54947900  *
    19       C          1.50613400  *  -3.64347300  *   0.86038200  *
    20       H          1.71713200  *  -4.06213300  *   1.83585800  *
    21       O          4.27449500  *  -6.63838700  *  -1.37924100  *
    22       H          5.17687800  *  -6.31104100  *  -1.20478300  *
    23       H          4.36208800  *  -7.60348600  *  -1.22802900  *
    24       O         -3.22317200  *  -3.49658200  *   1.37415000  *
    25       H         -3.26969000  *  -3.87851800  *   0.50473000  *
    26       H         -3.38115900  *  -2.53024000  *   1.27943900  *
    27       O         -0.57956900  *  -5.58722100  *   0.34810200  *
    28       H         -0.95378500  *  -6.33205800  *   0.94368300  *
    29       H         -1.06786600  *  -4.77394700  *   0.38131600  *
    30       O         -1.99506300  *   0.32002100  *  -3.61079200  *
    31       H         -1.24709200  *   0.75608300  *  -3.16457800  *
    32       H         -2.09061900  *   0.83338000  *  -4.49512600  *
    33       O         -5.76498200  *  -1.90569300  *   2.24062100  *
    34       H         -6.36500000  *  -1.68792300  *   2.92324300  *
    35       H         -4.96255200  *  -1.45470700  *   2.45753800  *
    36       O          0.95896700  *  -3.28662400  *   4.46893200  *
    37       H          0.58139400  *  -3.62814300  *   3.64699800  *
    38       H          0.33119900  *  -2.87724600  *   5.04989200  *
    39       O         -2.04399600  *   3.67591500  *  -2.33354200  *
    40       H         -2.61766100  *   3.41538300  *  -3.05474000  *
    41       H         -2.44354300  *   3.54296600  *  -1.45852800  *
    42       O         -0.44847000  *   0.72123200  *   3.47654800  *
    43       H         -0.51871300  *   1.56178600  *   3.91883100  *
    44       H          0.42075800  *   0.26493100  *   3.69789100  *
    45       O         -1.26063200  *  -3.55069400  *   3.21979700  *
    46       H         -1.82873300  *  -3.52745000  *   2.41832000  *
    47       H         -1.33293300  *  -2.63701300  *   3.62893400  *
    48       O         -1.72125700  *  -2.71853200  *  -2.89746500  *
    49       H         -1.14762100  *  -2.52475100  *  -3.67852200  *
    50       H         -2.21060100  *  -1.86413500  *  -2.89801800  *
    51       O         -2.29941200  *  -1.13781800  *   3.32810400  *
    52       H         -2.60712600  *  -0.87109800  *   2.43967400  *
    53       H         -1.72877500  *  -0.42463000  *   3.59741300  *
    54       O         -0.73394700  *   4.48035300  *   1.16052400  *
    55       H         -1.66026900  *   4.36961700  *   1.54618900  *
    56       H         -0.83454900  *   4.21416600  *   0.21107900  *
    57       H         -4.35318400  *   1.10272700  *   0.46469000  *
    58       H         -0.19897600  *   0.75076700  *   0.15982500  *

                             CARTESIAN COORDINATES

   1    C       -3.507462000     0.425740000     0.585289000
   2    O       -3.690667000    -0.683021000     1.092626000
   3    N       -2.277690000     0.781665000     0.094176000
   4    H       -2.195870000     1.733186000    -0.361177000
   5    C       -1.005090000     0.042109000     0.349782000
   6    H       -0.978043000    -0.200426000     1.467078000
   7    C       -0.950275000    -1.169142000    -0.584646000
   8    H       -1.835194000    -1.785945000    -0.147711000
   9    H       -1.194507000    -0.874873000    -1.613993000
  10    C        0.227993000    -2.031433000    -0.491648000
  11    C        1.198843000    -2.221564000    -1.519106000
  12    H        1.052823000    -1.715539000    -2.464360000
  13    C        2.259667000    -3.068260000    -1.350473000
  14    H        3.009929000    -3.087542000    -2.094664000
  15    C        2.464710000    -3.809300000    -0.215248000
  16    H        3.373342000    -4.478089000    -0.161622000
  17    C        0.429366000    -2.755461000     0.668142000
  18    H       -0.190972000    -2.505266000     1.549479000
  19    C        1.506134000    -3.643473000     0.860382000
  20    H        1.717132000    -4.062133000     1.835858000
  21    O        4.274495000    -6.638387000    -1.379241000
  22    H        5.176878000    -6.311041000    -1.204783000
  23    H        4.362088000    -7.603486000    -1.228029000
  24    O       -3.223172000    -3.496582000     1.374150000
  25    H       -3.269690000    -3.878518000     0.504730000
  26    H       -3.381159000    -2.530240000     1.279439000
  27    O       -0.579569000    -5.587221000     0.348102000
  28    H       -0.953785000    -6.332058000     0.943683000
  29    H       -1.067866000    -4.773947000     0.381316000
  30    O       -1.995063000     0.320021000    -3.610792000
  31    H       -1.247092000     0.756083000    -3.164578000
  32    H       -2.090619000     0.833380000    -4.495126000
  33    O       -5.764982000    -1.905693000     2.240621000
  34    H       -6.365000000    -1.687923000     2.923243000
  35    H       -4.962552000    -1.454707000     2.457538000
  36    O        0.958967000    -3.286624000     4.468932000
  37    H        0.581394000    -3.628143000     3.646998000
  38    H        0.331199000    -2.877246000     5.049892000
  39    O       -2.043996000     3.675915000    -2.333542000
  40    H       -2.617661000     3.415383000    -3.054740000
  41    H       -2.443543000     3.542966000    -1.458528000
  42    O       -0.448470000     0.721232000     3.476548000
  43    H       -0.518713000     1.561786000     3.918831000
  44    H        0.420758000     0.264931000     3.697891000
  45    O       -1.260632000    -3.550694000     3.219797000
  46    H       -1.828733000    -3.527450000     2.418320000
  47    H       -1.332933000    -2.637013000     3.628934000
  48    O       -1.721257000    -2.718532000    -2.897465000
  49    H       -1.147621000    -2.524751000    -3.678522000
  50    H       -2.210601000    -1.864135000    -2.898018000
  51    O       -2.299412000    -1.137818000     3.328104000
  52    H       -2.607126000    -0.871098000     2.439674000
  53    H       -1.728775000    -0.424630000     3.597413000
  54    O       -0.733947000     4.480353000     1.160524000
  55    H       -1.660269000     4.369617000     1.546189000
  56    H       -0.834549000     4.214166000     0.211079000
  57    H       -4.353184000     1.102727000     0.464690000
  58    H       -0.198976000     0.750767000     0.159825000


           Empirical Formula: C9 H35 N O13  =    58 atoms



      MOLECULAR POINT GROUP   :   C1  


                EIGENVECTORS  


   Root No.      69        70        71        72        73        74        75        76

                69 A      70 A      71 A      72 A      73 A      74 A      75 A      76 A   

               -10.499   -10.182   -10.147   -10.113   -10.098    -9.780    -9.000    -8.474
  
  S   C    1   -0.0287   -0.0076   -0.0222   -0.0001    0.0347    0.0692    0.0018    0.0007
  Px  C    1   -0.0057    0.0047    0.0351   -0.0001   -0.0218   -0.1353    0.0707   -0.0098
  Py  C    1   -0.0337   -0.0089   -0.0323    0.0002    0.0335    0.0832    0.0556   -0.0124
  Pz  C    1    0.0049    0.0009    0.0054    0.0007   -0.0039   -0.0028    0.1374   -0.0292
  S   O    2   -0.0109   -0.0017   -0.0067    0.0000    0.0024    0.0038    0.0057   -0.0017
  Px  O    2   -0.0758   -0.0416   -0.1826   -0.0028    0.2384    0.6914   -0.1585    0.0072
  Py  O    2    0.0449    0.0135    0.0556   -0.0064   -0.0521   -0.2329   -0.1456    0.0270
  Pz  O    2   -0.0279   -0.0050    0.0029   -0.0158    0.0331   -0.1578   -0.4114    0.0758
  S   N    3    0.0021    0.0032    0.0209   -0.0012   -0.0295   -0.0775   -0.0245    0.0080
  Px  N    3   -0.0383   -0.0148   -0.0590    0.0045    0.0503    0.2601    0.1080   -0.0173
  Py  N    3    0.0691    0.0096   -0.0022    0.0100   -0.0201    0.1093    0.3352   -0.0720
  Pz  N    3   -0.0121    0.0069    0.0365    0.0187   -0.0748   -0.0148    0.6567   -0.1060
  S   H    4    0.0519    0.0043   -0.0144    0.0006    0.0089    0.0903    0.0049   -0.0144
  S   C    5    0.0255    0.0001   -0.0055   -0.0050    0.0081    0.0068   -0.0315   -0.0259
  Px  C    5   -0.0460   -0.0027    0.0360   -0.0030    0.0032   -0.2132   -0.0067    0.0177
  Py  C    5   -0.1624   -0.0205   -0.0039    0.0086    0.0518   -0.0757   -0.0227    0.0837
  Pz  C    5    0.1631    0.0317    0.0304    0.0137   -0.1029    0.0573   -0.1683    0.0423
  S   H    6    0.1520    0.0276    0.0168    0.0051   -0.0750    0.0662   -0.1708    0.0097
  S   C    7   -0.0207   -0.0029    0.0104    0.0028   -0.0255    0.0064    0.0698   -0.0016
  Px  C    7   -0.0063   -0.0033    0.0015   -0.0063   -0.0745    0.1629   -0.0508   -0.0606
  Py  C    7    0.1810    0.0381    0.0116   -0.0002   -0.0749    0.1039    0.1348   -0.1126
  Pz  C    7   -0.1415   -0.0442   -0.0415   -0.0189    0.1292   -0.0707    0.1303   -0.0164
  S   H    8   -0.1165   -0.0294   -0.0191    0.0001    0.1101   -0.1414    0.0481    0.0818
  S   H    9    0.1330    0.0424    0.0419    0.0180   -0.1213    0.0531   -0.0339    0.0023
  S   C   10   -0.0054   -0.0027   -0.0068   -0.0026    0.0065    0.0224   -0.0172    0.0067
  Px  C   10    0.0883    0.0013   -0.0259    0.0090    0.0784   -0.0493    0.1331    0.1193
  Py  C   10   -0.0645   -0.0263   -0.0288    0.0139    0.0391    0.0684    0.0636    0.1700
  Pz  C   10   -0.0081    0.0703    0.1096    0.0508   -0.2788    0.1002    0.0302    0.0662
  S   C   11   -0.0197   -0.0083   -0.0005    0.0003    0.0097   -0.0171    0.0122   -0.0142
  Px  C   11   -0.1105    0.0012    0.0548    0.0576   -0.1453    0.0683   -0.0461   -0.1693
  Py  C   11   -0.0042    0.0207    0.0068    0.0651    0.0025   -0.0330    0.0098   -0.2541
  Pz  C   11   -0.0019   -0.0650   -0.0905   -0.0045    0.2313   -0.0790    0.0243   -0.1136
  S   H   12    0.0038    0.0527    0.0654    0.0238   -0.1539    0.0295   -0.0021   -0.0084
  S   C   13    0.0160    0.0046   -0.0063   -0.0050    0.0110    0.0043    0.0003    0.0085
  Px  C   13    0.0449   -0.0011   -0.0406    0.0282    0.1266   -0.0917   -0.0371   -0.2446
  Py  C   13   -0.1120   -0.0430   -0.0132    0.0514    0.0486   -0.0438   -0.1160   -0.3617
  Pz  C   13   -0.0734    0.0516    0.0867    0.0595   -0.1944    0.0194   -0.0713   -0.2355
  S   H   14    0.0807   -0.0276   -0.0791   -0.0235    0.1962   -0.0629    0.0259    0.0131
  S   C   15   -0.0057   -0.0165   -0.0034    0.0020    0.0087    0.0003   -0.0021   -0.0054
  Px  C   15   -0.1670   -0.0303    0.0678    0.0270   -0.1459    0.0106   -0.0949   -0.0729
  Py  C   15   -0.0052    0.0467    0.0224    0.0335   -0.0271   -0.0552   -0.1033   -0.1253
  Pz  C   15    0.0197   -0.0605   -0.0910   -0.0110    0.2304   -0.0822   -0.0423   -0.0494
  S   H   16   -0.1061   -0.0374    0.0234    0.0019   -0.0603    0.0303   -0.0149    0.0103
  S   C   17    0.0219   -0.0024   -0.0012   -0.0030   -0.0003    0.0047   -0.0017   -0.0299
  Px  C   17   -0.1431   -0.0030    0.0544   -0.0005   -0.1358    0.0572    0.0314    0.3865
  Py  C   17    0.0855    0.0441    0.0202    0.0004   -0.0500    0.0176    0.0759    0.4259
  Pz  C   17    0.0149   -0.0650   -0.1103   -0.0426    0.2694   -0.0676    0.0457    0.1825
  S   H   18    0.0957   -0.0324   -0.0892   -0.0261    0.2191   -0.0661    0.0244   -0.0060
  S   C   19    0.0008    0.0067    0.0011   -0.0088   -0.0049    0.0054   -0.0000   -0.0087
  Px  C   19    0.1056    0.0162   -0.0360   -0.0207    0.0997   -0.0564    0.0063    0.1958
  Py  C   19   -0.1201   -0.0213    0.0133   -0.0206   -0.0224   -0.0068   -0.0413    0.3077
  Pz  C   19   -0.0490    0.0565    0.1062    0.0077   -0.2480    0.0482   -0.0201    0.0901
  S   H   20    0.0196    0.0546    0.0682    0.0090   -0.1619    0.0335   -0.0002   -0.0142
  S   O   21    0.0041    0.0012   -0.0008    0.0001    0.0023   -0.0013   -0.0001   -0.0009
  Px  O   21    0.0157   -0.2266    0.0284   -0.0002   -0.0360    0.0048    0.0001    0.0009
  Py  O   21   -0.0040    0.1272   -0.0167    0.0002    0.0224   -0.0038    0.0002   -0.0012
  Pz  O   21   -0.0701    0.9352   -0.1164    0.0002    0.1455   -0.0177    0.0011   -0.0022
  S   H   22   -0.0008   -0.0007    0.0002   -0.0001   -0.0006    0.0004    0.0002    0.0005
  S   H   23   -0.0041   -0.0010    0.0008   -0.0001   -0.0023    0.0013    0.0000    0.0010
  S   O   24   -0.0047   -0.0011   -0.0018   -0.0001    0.0043   -0.0007    0.0002    0.0005
  Px  O   24    0.0364    0.0057   -0.0198    0.0008   -0.0414    0.0274    0.0008   -0.0000
  Py  O   24    0.0273    0.0089    0.0261   -0.0008   -0.0345   -0.0393   -0.0155   -0.0030
  Pz  O   24   -0.0243   -0.0067   -0.0132   -0.0028    0.0275    0.0083    0.0098    0.0025
  S   H   25    0.0024    0.0003   -0.0011   -0.0001   -0.0019    0.0031    0.0001   -0.0003
  S   H   26    0.0037    0.0009    0.0018   -0.0001   -0.0029    0.0040    0.0009   -0.0010
  S   O   27   -0.0016   -0.0004   -0.0006    0.0003    0.0015   -0.0016   -0.0009    0.0113
  Px  O   27    0.0099   -0.0123   -0.0224    0.5668    0.0546   -0.0163   -0.0056    0.0242
  Py  O   27    0.0039   -0.0031   -0.0062    0.3111    0.0176   -0.0032    0.0044    0.0654
  Pz  O   27    0.0146   -0.0123   -0.0224    0.7452    0.0575   -0.0127    0.0021    0.0669
  S   H   28    0.0016   -0.0004   -0.0005    0.0008    0.0008    0.0007   -0.0002   -0.0182
  S   H   29    0.0008    0.0008    0.0009    0.0015   -0.0021    0.0012    0.0011   -0.0012
  S   O   30   -0.0044   -0.0014   -0.0013   -0.0006    0.0038   -0.0017    0.0017   -0.0002
  Px  O   30   -0.0117   -0.0041   -0.0040   -0.0016    0.0111   -0.0044    0.0037    0.0000
  Py  O   30    0.0025    0.0008    0.0014    0.0004   -0.0030   -0.0011    0.0024    0.0002
  Pz  O   30   -0.0064   -0.0018   -0.0013   -0.0007    0.0043   -0.0031    0.0033   -0.0002
  S   H   31   -0.0009   -0.0002   -0.0001   -0.0001    0.0004   -0.0001   -0.0008    0.0001
  S   H   32    0.0072    0.0023    0.0021    0.0009   -0.0061    0.0027   -0.0025    0.0003
  S   O   33    0.0012    0.0003    0.0007   -0.0002   -0.0026   -0.0064   -0.0016    0.0001
  Px  O   33   -0.0071   -0.0180   -0.2873    0.0012   -0.1100    0.0136    0.0124   -0.0032
  Py  O   33    0.0047    0.0394    0.7111   -0.0005    0.3323    0.1389    0.0079   -0.0031
  Pz  O   33   -0.0090   -0.0284   -0.4788    0.0015   -0.2020   -0.0317    0.0110   -0.0019
  S   H   34   -0.0000    0.0002    0.0007    0.0001   -0.0019   -0.0058    0.0008    0.0002
  S   H   35   -0.0013   -0.0005   -0.0020    0.0002    0.0036    0.0096    0.0001    0.0001
  S   O   36   -0.0026   -0.0001   -0.0004    0.0003    0.0000    0.0001    0.0000   -0.0002
  Px  O   36   -0.0115    0.0041    0.0045    0.0031   -0.0159    0.0049   -0.0008   -0.0005
  Py  O   36    0.0007   -0.0005   -0.0000    0.0014   -0.0020    0.0018   -0.0003   -0.0017
  Pz  O   36   -0.0096    0.0063    0.0081    0.0017   -0.0206    0.0044   -0.0002    0.0013
  S   H   37    0.0012   -0.0006   -0.0003   -0.0002    0.0012   -0.0001   -0.0001    0.0001
  S   H   38    0.0009    0.0009    0.0013   -0.0000   -0.0028    0.0005   -0.0000    0.0003
  S   O   39    0.0000   -0.0000    0.0000   -0.0000   -0.0000   -0.0005    0.0001    0.0001
  Px  O   39    0.0027    0.0002   -0.0010    0.0000    0.0008    0.0055   -0.0006   -0.0005
  Py  O   39    0.0060    0.0004   -0.0017    0.0001    0.0013    0.0086   -0.0007   -0.0007
  Pz  O   39   -0.0038   -0.0002    0.0014   -0.0000   -0.0012   -0.0073    0.0001    0.0008
  S   H   40    0.0003    0.0000   -0.0001    0.0000    0.0001    0.0009   -0.0001   -0.0001
  S   H   41   -0.0003   -0.0000    0.0000   -0.0000   -0.0001    0.0002   -0.0002   -0.0001
  S   O   42   -0.0181   -0.0029   -0.0018   -0.0007    0.0076   -0.0059    0.0157   -0.0017
  Px  O   42   -0.3087   -0.0078   -0.0076   -0.0015    0.0168    0.0044    0.0011   -0.0012
  Py  O   42   -0.3224   -0.0087   -0.0088   -0.0020    0.0203    0.0024    0.0007   -0.0001
  Pz  O   42    0.6069    0.0225    0.0198    0.0050   -0.0542    0.0102   -0.0372    0.0034
  S   H   43    0.0103    0.0021    0.0013    0.0004   -0.0054    0.0041   -0.0123    0.0013
  S   H   44    0.0064    0.0014    0.0010    0.0004   -0.0038    0.0028   -0.0073    0.0009
  S   O   45    0.0065   -0.0009   -0.0031   -0.0006    0.0049    0.0006   -0.0004    0.0011
  Px  O   45   -0.1069    0.0231    0.0486    0.0166   -0.1301    0.0381   -0.0085    0.0040
  Py  O   45   -0.0830    0.0167    0.0466    0.0099   -0.0974    0.0066    0.0108    0.0025
  Pz  O   45    0.1041   -0.0235   -0.0620   -0.0103    0.1316   -0.0288    0.0085   -0.0131
  S   H   46   -0.0050    0.0012    0.0037    0.0007   -0.0075    0.0015   -0.0003   -0.0002
  S   H   47   -0.0049    0.0005    0.0018    0.0012   -0.0037    0.0001   -0.0004   -0.0016
  S   O   48    0.0012    0.0001   -0.0000    0.0003   -0.0008    0.0019    0.0022   -0.0018
  Px  O   48   -0.0216   -0.0073   -0.0073    0.0005    0.0165   -0.0000    0.0104   -0.0055
  Py  O   48   -0.0362   -0.0122   -0.0127   -0.0039    0.0306   -0.0034    0.0151   -0.0078
  Pz  O   48   -0.0160   -0.0036   -0.0039   -0.0004    0.0069    0.0051    0.0108   -0.0032
  S   H   49   -0.0008   -0.0001    0.0002    0.0001    0.0005   -0.0024   -0.0022    0.0019
  S   H   50   -0.0030   -0.0007   -0.0008   -0.0008    0.0022   -0.0010   -0.0006    0.0011
  S   O   51    0.0201    0.0008   -0.0004   -0.0001   -0.0010    0.0017    0.0031   -0.0008
  Px  O   51   -0.1460   -0.0088   -0.0080   -0.0020    0.0192    0.0038   -0.0019    0.0022
  Py  O   51   -0.1145   -0.0011    0.0107    0.0009   -0.0084   -0.0428    0.0520   -0.0071
  Pz  O   51    0.0417   -0.0014   -0.0258   -0.0021    0.0310    0.0841   -0.0916    0.0113
  S   H   52   -0.0051   -0.0007   -0.0004    0.0000    0.0017    0.0037   -0.0092    0.0020
  S   H   53   -0.0128   -0.0010   -0.0015   -0.0002    0.0033    0.0023   -0.0048    0.0010
  S   O   54    0.0001    0.0000   -0.0001    0.0000    0.0001    0.0002   -0.0001    0.0000
  Px  O   54    0.0005    0.0000   -0.0004    0.0001    0.0003    0.0022    0.0017   -0.0004
  Py  O   54   -0.0004   -0.0001   -0.0004    0.0001    0.0009    0.0012    0.0009   -0.0000
  Pz  O   54    0.0004   -0.0000   -0.0003    0.0000    0.0005    0.0014    0.0009   -0.0002
  S   H   55   -0.0001   -0.0000    0.0000   -0.0000   -0.0000   -0.0001    0.0003   -0.0000
  S   H   56   -0.0001    0.0000    0.0001   -0.0000   -0.0001   -0.0001    0.0002   -0.0000
  S   H   57   -0.0381   -0.0157   -0.0668   -0.0000    0.0722    0.2353   -0.0424    0.0042
  S   H   58   -0.1157   -0.0166    0.0101   -0.0020    0.0505   -0.1678   -0.0137    0.0383


   Root No.      77        78        79        80        81        82        83        84

                77 A      78 A      79 A      80 A      81 A      82 A      83 A      84 A   

                -7.924     1.472     1.709     2.090     3.063     3.879     4.191     4.516
  
  S   C    1   -0.0001   -0.0076    0.0022    0.0291   -0.2859    0.0166    0.0049    0.1709
  Px  C    1    0.0114   -0.0268    0.0134    0.1648   -0.3446    0.0097    0.0041   -0.0262
  Py  C    1    0.0152   -0.0349    0.0228    0.3036   -0.1211    0.0004   -0.0143   -0.2100
  Pz  C    1    0.0325   -0.0614    0.0470    0.7232    0.1153    0.0244   -0.0029    0.0790
  S   O    2    0.0027   -0.0035    0.0015   -0.0008   -0.0216   -0.0068   -0.0043   -0.1193
  Px  O    2   -0.0025    0.0097   -0.0050   -0.0859    0.1364   -0.0101   -0.0029   -0.0777
  Py  O    2   -0.0254    0.0151   -0.0117   -0.1787    0.0111   -0.0129   -0.0079   -0.1625
  Pz  O    2   -0.0701    0.0369   -0.0258   -0.3533   -0.0254   -0.0037    0.0078    0.0518
  S   N    3   -0.0073    0.0134   -0.0002    0.0305    0.4351   -0.0065   -0.0030    0.0010
  Px  N    3    0.0154    0.0106   -0.0021   -0.0366    0.0475   -0.0005    0.0178    0.0688
  Py  N    3    0.0680    0.0007   -0.0079   -0.1842   -0.1121   -0.0121   -0.0230   -0.0295
  Pz  N    3    0.0977    0.0219   -0.0173   -0.3486    0.1263   -0.0289    0.0191    0.0203
  S   H    4    0.0151   -0.0149    0.0023   -0.0113   -0.3505    0.0007    0.0252    0.0620
  S   C    5    0.0469   -0.0638    0.0227   -0.0078   -0.1847   -0.0666    0.0069   -0.0847
  Px  C    5   -0.0148    0.0074    0.0041    0.0510    0.4721   -0.0098    0.0138    0.0713
  Py  C    5   -0.1198    0.0810   -0.0370   -0.0485   -0.2453    0.1118   -0.0371   -0.0161
  Pz  C    5   -0.0792    0.0657   -0.0315   -0.0038    0.0986    0.0792   -0.0035   -0.0733
  S   H    6   -0.0186   -0.0052    0.0027    0.0529   -0.0278    0.0002   -0.0254    0.0746
  S   C    7    0.0042    0.0164   -0.0039   -0.0460    0.0268    0.0186   -0.0625   -0.0072
  Px  C    7    0.1014   -0.0213    0.0092   -0.0094    0.0392    0.0116    0.0417    0.1071
  Py  C    7    0.1251    0.0204   -0.0214   -0.0653   -0.0309    0.0869   -0.0584    0.0207
  Pz  C    7    0.0426    0.0221   -0.0073   -0.0454   -0.0003    0.0549    0.0989   -0.0328
  S   H    8   -0.1181    0.0814   -0.0358    0.0062    0.0334    0.0775   -0.0172    0.0921
  S   H    9   -0.0307    0.0250   -0.0093    0.0043    0.0424    0.0238    0.0893   -0.0191
  S   C   10    0.0002    0.0105   -0.0002    0.0063   -0.0650   -0.0007   -0.0121   -0.0216
  Px  C   10   -0.2545    0.3063   -0.1243    0.0330    0.0664    0.1771   -0.0000    0.0393
  Py  C   10   -0.3409    0.4028   -0.1742    0.0529   -0.0711    0.2646   -0.0329   -0.0532
  Pz  C   10   -0.1913    0.2059   -0.0768    0.0219    0.0082    0.1321    0.0161   -0.0351
  S   C   11   -0.0064   -0.0111   -0.0118   -0.0040    0.0073   -0.0098   -0.0029   -0.0163
  Px  C   11   -0.2589   -0.2474   -0.1747   -0.0007   -0.0016   -0.2131    0.0087    0.0440
  Py  C   11   -0.3663   -0.3530   -0.2553   -0.0077   -0.0027   -0.2774    0.0123    0.0042
  Pz  C   11   -0.1595   -0.1632   -0.1242   -0.0070    0.0098   -0.1179    0.0384   -0.0194
  S   H   12   -0.0039    0.0114    0.0175   -0.0012    0.0091    0.0189    0.0170    0.0009
  S   C   13   -0.0040    0.0047   -0.0050    0.0015   -0.0085   -0.0028    0.0005   -0.0121
  Px  C   13    0.0322   -0.0176    0.2791   -0.0260    0.0185    0.1986   -0.0106    0.0060
  Py  C   13    0.0679   -0.0208    0.4183   -0.0364    0.0010    0.3203   -0.0219   -0.0157
  Pz  C   13    0.0130   -0.0111    0.2501   -0.0222    0.0093    0.1852   -0.0063   -0.0121
  S   H   14    0.0082    0.0004    0.0079   -0.0020    0.0036    0.0216    0.0051   -0.0108
  S   C   15   -0.0005    0.0016   -0.0090    0.0011   -0.0039   -0.0051   -0.0021   -0.0085
  Px  C   15    0.2775    0.2612   -0.1207    0.0359   -0.0110   -0.2405    0.0105    0.0190
  Py  C   15    0.3858    0.3689   -0.1829    0.0518   -0.0209   -0.3329    0.0120    0.0121
  Pz  C   15    0.2151    0.1918   -0.0916    0.0256   -0.0086   -0.1543    0.0149   -0.0145
  S   H   16    0.0003   -0.0083    0.0062   -0.0012   -0.0027    0.0173   -0.0014   -0.0019
  S   C   17    0.0100   -0.0039   -0.0204   -0.0006   -0.0017    0.0055   -0.0144   -0.0342
  Px  C   17   -0.0393   -0.0556    0.3399   -0.0206    0.0009   -0.2352    0.0150    0.0687
  Py  C   17   -0.0389   -0.0768    0.4045   -0.0267   -0.0138   -0.2725   -0.0009    0.0064
  Pz  C   17   -0.0045   -0.0220    0.1642   -0.0110   -0.0049   -0.1055    0.0250   -0.0601
  S   H   18    0.0147   -0.0085    0.0183   -0.0017    0.0087   -0.0232   -0.0018    0.0720
  S   C   19   -0.0248    0.0137    0.0110    0.0016   -0.0084   -0.0152   -0.0018   -0.0142
  Px  C   19    0.2295   -0.2485   -0.2061   -0.0150    0.0244    0.2196   -0.0081    0.0107
  Py  C   19    0.3402   -0.3549   -0.3064   -0.0192    0.0106    0.3477   -0.0152   -0.0163
  Pz  C   19    0.1126   -0.1254   -0.1066   -0.0072    0.0070    0.1226   -0.0017   -0.0312
  S   H   20   -0.0144   -0.0125   -0.0034   -0.0013    0.0025    0.0162   -0.0055    0.0226
  S   O   21    0.0012    0.0011   -0.0004    0.0002   -0.0000   -0.0017    0.0001    0.0001
  Px  O   21   -0.0015    0.0004   -0.0001    0.0001    0.0000   -0.0013    0.0001    0.0001
  Py  O   21    0.0012   -0.0001    0.0000   -0.0000    0.0000    0.0008   -0.0000   -0.0000
  Pz  O   21    0.0027    0.0010   -0.0005    0.0001    0.0000   -0.0012    0.0001    0.0000
  S   H   22   -0.0008   -0.0014    0.0005   -0.0002    0.0000    0.0024   -0.0001   -0.0001
  S   H   23   -0.0012   -0.0018    0.0007   -0.0003    0.0000    0.0029   -0.0002   -0.0001
  S   O   24    0.0002   -0.0029    0.0028   -0.0077   -0.0006   -0.0117   -0.0017   -0.1525
  Px  O   24    0.0054   -0.0012    0.0020    0.0033   -0.0008   -0.0005    0.0007   -0.0013
  Py  O   24    0.0067   -0.0041    0.0023   -0.0161   -0.0001   -0.0129   -0.0015   -0.1528
  Pz  O   24   -0.0076    0.0043   -0.0037    0.0077    0.0015    0.0120    0.0022    0.1264
  S   H   25   -0.0001    0.0033   -0.0037    0.0061    0.0012    0.0154    0.0029    0.2047
  S   H   26    0.0004    0.0042   -0.0034    0.0199    0.0004    0.0216    0.0033    0.2865
  S   O   27    0.0090   -0.0091    0.0048   -0.0015   -0.0002   -0.0038   -0.0008   -0.0320
  Px  O   27    0.0326    0.0002   -0.0169    0.0015    0.0008    0.0129    0.0007    0.0439
  Py  O   27    0.0168   -0.0103    0.0129   -0.0020   -0.0004   -0.0076   -0.0005   -0.0215
  Pz  O   27    0.0264   -0.0117    0.0022   -0.0015    0.0001   -0.0003   -0.0006   -0.0259
  S   H   28   -0.0097    0.0133   -0.0039    0.0019    0.0000    0.0025    0.0011    0.0482
  S   H   29   -0.0037    0.0102   -0.0128    0.0024    0.0006    0.0126    0.0014    0.0636
  S   O   30    0.0010   -0.0015    0.0001   -0.0016    0.0040   -0.0118   -0.2275    0.0029
  Px  O   30    0.0016   -0.0015    0.0003   -0.0022    0.0055   -0.0108   -0.1977    0.0017
  Py  O   30    0.0003   -0.0010    0.0004   -0.0019    0.0082   -0.0138   -0.2808    0.0019
  Pz  O   30    0.0013    0.0001    0.0002   -0.0002    0.0003    0.0063    0.1477   -0.0026
  S   H   31   -0.0004    0.0020   -0.0003    0.0034   -0.0103    0.0212    0.4094   -0.0036
  S   H   32   -0.0015    0.0026   -0.0003    0.0022   -0.0055    0.0240    0.4915   -0.0073
  S   O   33    0.0002   -0.0008    0.0006    0.0038    0.0054   -0.0025   -0.0011   -0.0509
  Px  O   33    0.0033   -0.0015    0.0011    0.0080    0.0085   -0.0030   -0.0013   -0.0561
  Py  O   33    0.0029   -0.0011    0.0008    0.0061    0.0069   -0.0026   -0.0012   -0.0525
  Pz  O   33    0.0017   -0.0008    0.0006    0.0047    0.0054   -0.0024   -0.0010   -0.0498
  S   H   34   -0.0004    0.0006   -0.0004   -0.0017   -0.0050    0.0029    0.0012    0.0592
  S   H   35   -0.0003    0.0016   -0.0012   -0.0106   -0.0129    0.0048    0.0023    0.1036
  S   O   36   -0.0000    0.0008    0.0003    0.0003   -0.0003   -0.0034    0.0004   -0.0754
  Px  O   36   -0.0003   -0.0007   -0.0006   -0.0006    0.0004    0.0049   -0.0005    0.1129
  Py  O   36   -0.0008   -0.0000   -0.0001    0.0001    0.0001    0.0002    0.0000   -0.0011
  Pz  O   36    0.0004   -0.0013   -0.0002   -0.0002    0.0004    0.0025   -0.0002    0.0439
  S   H   37   -0.0001   -0.0014   -0.0004   -0.0005    0.0006    0.0062   -0.0006    0.1398
  S   H   38    0.0001   -0.0009   -0.0005   -0.0005    0.0003    0.0047   -0.0006    0.1118
  S   O   39   -0.0002    0.0007   -0.0001    0.0006    0.0335   -0.0018   -0.0489   -0.0284
  Px  O   39    0.0005   -0.0009    0.0001   -0.0008   -0.0416    0.0022    0.0604    0.0345
  Py  O   39    0.0006   -0.0005    0.0001   -0.0004   -0.0208    0.0011    0.0289    0.0142
  Pz  O   39   -0.0008    0.0010   -0.0001    0.0009    0.0295   -0.0000   -0.0044   -0.0121
  S   H   40    0.0001   -0.0007    0.0001   -0.0005   -0.0420    0.0032    0.0893    0.0463
  S   H   41    0.0002   -0.0015    0.0002   -0.0013   -0.0710    0.0029    0.0847    0.0574
  S   O   42    0.0024   -0.0006    0.0001   -0.0011    0.0020   -0.0024    0.0028   -0.0730
  Px  O   42    0.0005    0.0001   -0.0005   -0.0021   -0.0004   -0.0005    0.0014   -0.0261
  Py  O   42    0.0004   -0.0000    0.0001   -0.0014    0.0005   -0.0003    0.0005   -0.0015
  Pz  O   42   -0.0051   -0.0000   -0.0001    0.0024    0.0005   -0.0012    0.0009   -0.0535
  S   H   43   -0.0020    0.0007   -0.0001    0.0019   -0.0027    0.0034   -0.0041    0.1035
  S   H   44   -0.0014    0.0006    0.0002    0.0014   -0.0022    0.0031   -0.0039    0.1074
  S   O   45    0.0002   -0.0014    0.0027    0.0011   -0.0004   -0.0076    0.0003   -0.1615
  Px  O   45   -0.0024    0.0022   -0.0038    0.0002    0.0001    0.0080    0.0001    0.1264
  Py  O   45    0.0001   -0.0015    0.0019    0.0048    0.0001   -0.0077    0.0009   -0.2177
  Pz  O   45    0.0016    0.0023   -0.0051    0.0030    0.0013    0.0073    0.0005    0.0803
  S   H   46   -0.0003    0.0030   -0.0062    0.0009    0.0011    0.0162    0.0001    0.2818
  S   H   47   -0.0004    0.0020   -0.0029   -0.0047   -0.0003    0.0109   -0.0011    0.3046
  S   O   48   -0.0009   -0.0025   -0.0037   -0.0015   -0.0051   -0.0106   -0.1628    0.0073
  Px  O   48   -0.0126   -0.0002   -0.0053   -0.0001   -0.0000   -0.0002    0.0133   -0.0002
  Py  O   48    0.0038   -0.0052   -0.0047   -0.0030   -0.0095   -0.0171   -0.2658    0.0123
  Pz  O   48   -0.0005    0.0045    0.0026    0.0004    0.0032    0.0123    0.1555   -0.0075
  S   H   49   -0.0005    0.0041    0.0071    0.0021    0.0079    0.0196    0.2858   -0.0132
  S   H   50    0.0024    0.0045    0.0048    0.0026    0.0102    0.0225    0.3663   -0.0167
  S   O   51    0.0014   -0.0026    0.0018    0.0146    0.0028   -0.0055    0.0014   -0.1584
  Px  O   51   -0.0008    0.0009   -0.0007   -0.0100    0.0013   -0.0016    0.0020   -0.0565
  Py  O   51    0.0063   -0.0023    0.0012    0.0134    0.0044   -0.0042    0.0023   -0.1334
  Pz  O   51   -0.0114    0.0050   -0.0034   -0.0310   -0.0034    0.0057   -0.0004    0.1434
  S   H   52   -0.0025    0.0059   -0.0042   -0.0418   -0.0049    0.0096   -0.0013    0.2865
  S   H   53   -0.0012    0.0020   -0.0013   -0.0093   -0.0040    0.0071   -0.0032    0.2256
  S   O   54   -0.0000    0.0001    0.0000    0.0006    0.0116   -0.0005   -0.0122   -0.0171
  Px  O   54    0.0003   -0.0002   -0.0000   -0.0008   -0.0147    0.0005    0.0143    0.0210
  Py  O   54   -0.0001   -0.0001   -0.0000   -0.0005   -0.0086    0.0003    0.0074    0.0100
  Pz  O   54    0.0001   -0.0003   -0.0000   -0.0009   -0.0172    0.0006    0.0163    0.0199
  S   H   55    0.0000   -0.0002   -0.0000   -0.0008   -0.0164    0.0007    0.0185    0.0287
  S   H   56    0.0000   -0.0003   -0.0000   -0.0014   -0.0269    0.0011    0.0296    0.0397
  S   H   57   -0.0036    0.0073   -0.0014   -0.0101    0.2108   -0.0081    0.0084   -0.0503
  S   H   58   -0.0424    0.0027   -0.0003    0.0167    0.0249   -0.0072    0.0082   -0.0074


              NET ATOMIC CHARGES AND DIPOLE CONTRIBUTIONS

  ATOM NO.   TYPE          CHARGE      No. of ELECS.   s-Pop       p-Pop       
    1          C           0.508170        3.4918     1.12402     2.36781
    2          O          -0.744651        6.7447     1.86994     4.87471
    3          N          -0.551948        5.5519     1.57543     3.97651
    4          H           0.372788        0.6272     0.62721
    5          C          -0.051987        4.0520     1.07699     2.97500
    6          H           0.159831        0.8402     0.84017
    7          C          -0.336303        4.3363     1.05763     3.27867
    8          H           0.182762        0.8172     0.81724
    9          H           0.156274        0.8437     0.84373
   10          C          -0.008984        4.0090     1.06820     2.94079
   11          C          -0.219278        4.2193     1.08028     3.13900
   12          H           0.152689        0.8473     0.84731
   13          C          -0.174884        4.1749     1.07159     3.10330
   14          H           0.162546        0.8375     0.83745
   15          C          -0.190699        4.1907     1.10373     3.08697
   16          H           0.185965        0.8140     0.81403
   17          C          -0.241089        4.2411     1.08893     3.15216
   18          H           0.174640        0.8254     0.82536
   19          C          -0.058436        4.0584     1.10492     2.95352
   20          H           0.178339        0.8217     0.82166
   21          O          -0.730497        6.7305     1.82977     4.90072
   22          H           0.378251        0.6217     0.62175
   23          H           0.352324        0.6477     0.64768
   24          O          -0.809135        6.8091     1.80372     5.00541
   25          H           0.418945        0.5811     0.58105
   26          H           0.402844        0.5972     0.59716
   27          O          -0.775398        6.7754     1.81026     4.96514
   28          H           0.412642        0.5874     0.58736
   29          H           0.359750        0.6403     0.64025
   30          O          -0.752909        6.7529     1.83831     4.91460
   31          H           0.362540        0.6375     0.63746
   32          H           0.391118        0.6089     0.60888
   33          O          -0.730410        6.7304     1.79654     4.93387
   34          H           0.376284        0.6237     0.62372
   35          H           0.349484        0.6505     0.65052
   36          O          -0.824689        6.8247     1.78803     5.03666
   37          H           0.408437        0.5916     0.59156
   38          H           0.406064        0.5939     0.59394
   39          O          -0.848366        6.8484     1.79520     5.05316
   40          H           0.421702        0.5783     0.57830
   41          H           0.426687        0.5733     0.57331
   42          O          -0.816833        6.8168     1.80093     5.01590
   43          H           0.400975        0.5990     0.59903
   44          H           0.441657        0.5583     0.55834
   45          O          -0.812699        6.8127     1.82871     4.98398
   46          H           0.397094        0.6029     0.60291
   47          H           0.384101        0.6159     0.61590
   48          O          -0.762889        6.7629     1.84291     4.91998
   49          H           0.386895        0.6131     0.61311
   50          H           0.370981        0.6290     0.62902
   51          O          -0.836158        6.8362     1.81140     5.02476
   52          H           0.401653        0.5983     0.59835
   53          H           0.398703        0.6013     0.60130
   54          O          -0.810389        6.8104     1.83816     4.97223
   55          H           0.436758        0.5632     0.56324
   56          H           0.373604        0.6264     0.62640
   57          H           0.199292        0.8007     0.80071
   58          H           0.195841        0.8042     0.80416
 DIPOLE           X         Y         Z       TOTAL
 POINT-CHG.    -1.219    13.818    -4.232    14.503
 HYBRID        -0.563     0.757    -0.552     1.093
 SUM           -1.782    14.575    -4.784    15.443


          ATOMIC ORBITAL ELECTRON POPULATIONS

     Atom    s        px        py        pz   
    1  C   1.12402   0.84498   0.83081   0.69201
    2  O   1.86994   1.86966   1.40285   1.60220
    3  N   1.57543   1.13340   1.31125   1.53186
    4  H   0.62721
    5  C   1.07699   0.88608   1.00452   1.08439
    6  H   0.84017
    7  C   1.05763   1.08294   1.07416   1.12157
    8  H   0.81724
    9  H   0.84373
   10  C   1.06820   0.96391   0.97985   0.99703
   11  C   1.08028   1.01444   1.05826   1.06629
   12  H   0.84731
   13  C   1.07159   1.04215   0.99817   1.06297
   14  H   0.83745
   15  C   1.10373   1.06104   1.02908   0.99685
   16  H   0.81403
   17  C   1.08893   1.07111   1.02190   1.05916
   18  H   0.82536
   19  C   1.10492   0.94553   0.95872   1.04926
   20  H   0.82166
   21  O   1.82977   1.51048   1.42589   1.96435
   22  H   0.62175
   23  H   0.64768
   24  O   1.80372   1.96725   1.47846   1.55970
   25  H   0.58105
   26  H   0.59716
   27  O   1.81026   1.72078   1.43950   1.80485
   28  H   0.58736
   29  H   0.64025
   30  O   1.83831   1.67055   1.70969   1.53435
   31  H   0.63746
   32  H   0.60888
   33  O   1.79654   1.44812   1.82741   1.65833
   34  H   0.62372
   35  H   0.65052
   36  O   1.78803   1.63229   1.86902   1.53535
   37  H   0.59156
   38  H   0.59394
   39  O   1.79520   1.68082   1.94603   1.42631
   40  H   0.57830
   41  H   0.57331
   42  O   1.80093   1.62500   1.55269   1.83821
   43  H   0.59903
   44  H   0.55834
   45  O   1.82871   1.80903   1.55335   1.62160
   46  H   0.60291
   47  H   0.61590
   48  O   1.84291   1.70685   1.55079   1.66234
   49  H   0.61311
   50  H   0.62902
   51  O   1.81140   1.78689   1.65823   1.57963
   52  H   0.59835
   53  H   0.60130
   54  O   1.83816   1.55603   1.94999   1.46621
   55  H   0.56324
   56  H   0.62640
   57  H   0.80071
   58  H   0.80416


          SIGMA-PI BOND-ORDER MATRIX

                 S-SIGMA    P-SIGMA      P-PI     S-SIGMA    P-SIGMA      P-PI 
                  C  1       C  1       C  1       O  2       O  2       O  2
------------------------------------------------------------------------------
 S-SIGMA  C  1   0.949085
 P-SIGMA  C  1   0.000000   1.774598
   P-PI   C  1   0.000000   0.000000   1.017676
 S-SIGMA  O  2   0.022217   0.130399   0.000043   0.169874
 P-SIGMA  O  2   0.252868   0.527927   0.002316   0.000000   0.903329
   P-PI   O  2   0.007135   0.001771   0.529707   0.000000   0.000000   0.684524
 S-SIGMA  N  3   0.040829   0.171867   0.002587   0.000442   0.009311   0.011437
 P-SIGMA  N  3   0.210829   0.405820   0.002175   0.000051   0.015662   0.006366
   P-PI   N  3   0.001775   0.000841   0.451793   0.001169   0.000543   0.111295
 S-SIGMA  H  4   0.002343   0.003951   0.006882   0.000164   0.012470   0.002373
 S-SIGMA  C  5   0.000079   0.000735   0.000091   0.000114   0.000009   0.000525
 P-SIGMA  C  5   0.000684   0.014026   0.003952   0.000263   0.001478   0.002056
   P-PI   C  5   0.000247   0.000708   0.001302   0.000114   0.001697   0.002338
 S-SIGMA  H  6   0.000075   0.000764   0.002296   0.000003   0.000500   0.000833
 S-SIGMA  C  7   0.000004   0.000094   0.001702   0.000008   0.000067   0.000562
 P-SIGMA  C  7   0.000075   0.000022   0.001736   0.000029   0.000149   0.000224
   P-PI   C  7   0.000019   0.000364   0.002388   0.000075   0.000739   0.001356
 S-SIGMA  H  8   0.000155   0.000220   0.000045   0.000020   0.000559   0.000024
 S-SIGMA  H  9   0.000010   0.000081   0.000023   0.000001   0.000011   0.000013
 S-SIGMA  C 10   0.000007   0.000030   0.000124   0.000001   0.000032   0.000025
 P-SIGMA  C 10   0.000026   0.000067   0.000301   0.000002   0.000034   0.000053
   P-PI   C 10   0.000002   0.000006   0.000040   0.000001   0.000042   0.000019
 S-SIGMA  C 11   0.000000   0.000000   0.000008   0.000000   0.000002   0.000003
 P-SIGMA  C 11   0.000001   0.000000   0.000018   0.000000   0.000002   0.000012
   P-PI   C 11   0.000001   0.000000   0.000098   0.000003   0.000013   0.000042
 S-SIGMA  H 12   0.000000   0.000000   0.000001   0.000000   0.000000   0.000000
 S-SIGMA  C 13   0.000000   0.000000   0.000001   0.000000   0.000000   0.000000
 P-SIGMA  C 13   0.000000   0.000001   0.000005   0.000000   0.000001   0.000001
   P-PI   C 13   0.000000   0.000000   0.000001   0.000000   0.000001   0.000000
 S-SIGMA  H 14   0.000000   0.000000   0.000001   0.000000   0.000000   0.000000
 S-SIGMA  C 15   0.000000   0.000000   0.000000   0.000000   0.000000   0.000000
 P-SIGMA  C 15   0.000000   0.000000   0.000000   0.000000   0.000000   0.000000
   P-PI   C 15   0.000000   0.000000   0.000049   0.000001   0.000002   0.000031
 S-SIGMA  H 16   0.000000   0.000000   0.000000   0.000000   0.000000   0.000000
 S-SIGMA  C 17   0.000000   0.000000   0.000003   0.000000   0.000000   0.000004
 P-SIGMA  C 17   0.000000   0.000000   0.000003   0.000000   0.000000   0.000009
   P-PI   C 17   0.000001   0.000001   0.000094   0.000003   0.000003   0.000049
 S-SIGMA  H 18   0.000000   0.000000   0.000001   0.000000   0.000000   0.000000
 S-SIGMA  C 19   0.000000   0.000000   0.000002   0.000000   0.000000   0.000000
 P-SIGMA  C 19   0.000000   0.000001   0.000004   0.000000   0.000001   0.000001
   P-PI   C 19   0.000000   0.000000   0.000000   0.000000   0.000000   0.000000
 S-SIGMA  H 20   0.000000   0.000000   0.000000   0.000000   0.000000   0.000000

                  S-SIGMA    P-SIGMA      P-PI     S-SIGMA    P-SIGMA      P-PI 
                    C  1       C  1       C  1       O  2       O  2       O  2
------------------------------------------------------------------------------
 S-SIGMA  O 21   0.000000   0.000000   0.000000   0.000000   0.000000   0.000000
 P-SIGMA  O 21   0.000000   0.000000   0.000000   0.000000   0.000000   0.000000
   P-PI   O 21   0.000000   0.000000   0.000000   0.000000   0.000000   0.000000
 S-SIGMA  H 22   0.000000   0.000000   0.000000   0.000000   0.000000   0.000000
 S-SIGMA  H 23   0.000000   0.000000   0.000000   0.000000   0.000000   0.000000
 S-SIGMA  O 24   0.000013   0.000113   0.000045   0.000355   0.000638   0.000072
 P-SIGMA  O 24   0.000452   0.001635   0.000652   0.002248   0.001029   0.000558
   P-PI   O 24   0.000007   0.000022   0.000015   0.000049   0.000047   0.000022
 S-SIGMA  H 25   0.000001   0.000012   0.000011   0.000035   0.000110   0.000015
 S-SIGMA  H 26   0.000009   0.000165   0.000115   0.002918   0.011339   0.000348
 S-SIGMA  O 27   0.000000   0.000000   0.000000   0.000000   0.000000   0.000000
 P-SIGMA  O 27   0.000000   0.000000   0.000000   0.000001   0.000001   0.000000
   P-PI   O 27   0.000000   0.000000   0.000000   0.000000   0.000000   0.000000
 S-SIGMA  H 28   0.000000   0.000000   0.000000   0.000000   0.000000   0.000000
 S-SIGMA  H 29   0.000000   0.000000   0.000000   0.000000   0.000000   0.000000
 S-SIGMA  O 30   0.000000   0.000000   0.000000   0.000000   0.000000   0.000000
 P-SIGMA  O 30   0.000000   0.000000   0.000000   0.000000   0.000000   0.000000
   P-PI   O 30   0.000001   0.000001   0.000006   0.000000   0.000000   0.000003
 S-SIGMA  H 31   0.000000   0.000000   0.000001   0.000000   0.000000   0.000002
 S-SIGMA  H 32   0.000000   0.000000   0.000000   0.000000   0.000000   0.000000
 S-SIGMA  O 33   0.000010   0.000015   0.000060   0.000172   0.000429   0.000079
 P-SIGMA  O 33   0.000196   0.000240   0.000459   0.000605   0.000177   0.000274
   P-PI   O 33   0.000130   0.000126   0.000383   0.000524   0.000632   0.000234
 S-SIGMA  H 34   0.000009   0.000006   0.000032   0.000036   0.000135   0.000010
 S-SIGMA  H 35   0.000014   0.000024   0.000064   0.000987   0.006606   0.000138
 S-SIGMA  O 36   0.000000   0.000000   0.000000   0.000000   0.000000   0.000000
 P-SIGMA  O 36   0.000000   0.000000   0.000000   0.000000   0.000001   0.000000
   P-PI   O 36   0.000000   0.000000   0.000000   0.000000   0.000000   0.000000
 S-SIGMA  H 37   0.000000   0.000000   0.000000   0.000000   0.000000   0.000000
 S-SIGMA  H 38   0.000000   0.000000   0.000000   0.000000   0.000000   0.000000
 S-SIGMA  O 39   0.000000   0.000001   0.000006   0.000000   0.000004   0.000004
 P-SIGMA  O 39   0.000009   0.000009   0.000060   0.000000   0.000023   0.000021
   P-PI   O 39   0.000000   0.000001   0.000007   0.000000   0.000004   0.000005
 S-SIGMA  H 40   0.000000   0.000000   0.000002   0.000000   0.000001   0.000002
 S-SIGMA  H 41   0.000000   0.000000   0.000006   0.000000   0.000008   0.000013
 S-SIGMA  O 42   0.000000   0.000002   0.000000   0.000001   0.000022   0.000002
 P-SIGMA  O 42   0.000000   0.000001   0.000000   0.000002   0.000011   0.000000
   P-PI   O 42   0.000000   0.000010   0.000009   0.000003   0.000009   0.000002
 S-SIGMA  H 43   0.000000   0.000002   0.000000   0.000000   0.000012   0.000002
 S-SIGMA  H 44   0.000000   0.000001   0.000000   0.000000   0.000007   0.000001
 S-SIGMA  O 45   0.000000   0.000000   0.000001   0.000003   0.000016   0.000003
 P-SIGMA  O 45   0.000002   0.000011   0.000018   0.000039   0.000079   0.000022
   P-PI   O 45   0.000000   0.000002   0.000010   0.000001   0.000010   0.000036
 S-SIGMA  H 46   0.000000   0.000001   0.000000   0.000001   0.000018   0.000001
 S-SIGMA  H 47   0.000000   0.000000   0.000003   0.000003   0.000045   0.000010
 S-SIGMA  O 48   0.000000   0.000001   0.000000   0.000000   0.000000   0.000000
 P-SIGMA  O 48   0.000000   0.000002   0.000000   0.000000   0.000000   0.000000

                  S-SIGMA    P-SIGMA      P-PI     S-SIGMA    P-SIGMA      P-PI 
                    C  1       C  1       C  1       O  2       O  2       O  2
------------------------------------------------------------------------------
   P-PI   O 48   0.000000   0.000002   0.000000   0.000000   0.000001   0.000000
 S-SIGMA  H 49   0.000000   0.000000   0.000000   0.000000   0.000000   0.000000
 S-SIGMA  H 50   0.000000   0.000002   0.000000   0.000000   0.000000   0.000000
 S-SIGMA  O 51   0.000006   0.000037   0.000221   0.000362   0.002265   0.000219
 P-SIGMA  O 51   0.000036   0.000063   0.002819   0.002021   0.005464   0.001501
   P-PI   O 51   0.000001   0.000004   0.000068   0.000226   0.001303   0.000245
 S-SIGMA  H 52   0.000523   0.000910   0.000789   0.003254   0.031756   0.000223
 S-SIGMA  H 53   0.000001   0.000019   0.000040   0.000022   0.000376   0.000007
 S-SIGMA  O 54   0.000000   0.000000   0.000000   0.000000   0.000000   0.000000
 P-SIGMA  O 54   0.000000   0.000000   0.000004   0.000000   0.000001   0.000002
   P-PI   O 54   0.000001   0.000000   0.000002   0.000000   0.000001   0.000002
 S-SIGMA  H 55   0.000000   0.000000   0.000000   0.000000   0.000000   0.000000
 S-SIGMA  H 56   0.000000   0.000000   0.000000   0.000000   0.000001   0.000001
 S-SIGMA  H 57   0.406496   0.507732   0.001092   0.000857   0.014242   0.001957
 S-SIGMA  H 58   0.001781   0.003728   0.000882   0.000025   0.000064   0.000226

                 S-SIGMA    P-SIGMA      P-PI     S-SIGMA    S-SIGMA    P-SIGMA
                  N  3       N  3       N  3       H  4       C  5       C  5
------------------------------------------------------------------------------
 S-SIGMA  N  3   0.666125
 P-SIGMA  N  3   0.000000   1.916883
   P-PI   N  3   0.000000   0.000000   0.602083
 S-SIGMA  H  4   0.217069   0.593396   0.000168   0.861029
 S-SIGMA  C  5   0.024812   0.142266   0.001053   0.000464   0.975338
 P-SIGMA  C  5   0.177864   0.525064   0.000702   0.010324   0.000000   2.826693
   P-PI   C  5   0.001278   0.000775   0.025187   0.002411   0.000000   0.000000
 S-SIGMA  H  6   0.000028   0.000539   0.000460   0.002857   0.265899   0.682836
 S-SIGMA  C  7   0.000356   0.001522   0.000774   0.000631   0.049198   0.185358
 P-SIGMA  C  7   0.000379   0.000451   0.000310   0.001123   0.196939   0.524831
   P-PI   C  7   0.000162   0.000487   0.001542   0.000294   0.001043   0.005141
 S-SIGMA  H  8   0.000245   0.000159   0.000127   0.000166   0.000732   0.000577
 S-SIGMA  H  9   0.000217   0.000069   0.000452   0.000249   0.000052   0.000014
 S-SIGMA  C 10   0.000582   0.001268   0.000040   0.000169   0.000225   0.000011
 P-SIGMA  C 10   0.001237   0.002018   0.000178   0.000372   0.000271   0.000472
   P-PI   C 10   0.000048   0.000312   0.000051   0.000039   0.000062   0.000541
 S-SIGMA  C 11   0.000007   0.000016   0.000001   0.000007   0.000093   0.000157
 P-SIGMA  C 11   0.000013   0.000010   0.000004   0.000004   0.000000   0.000010
   P-PI   C 11   0.000035   0.000168   0.000016   0.000048   0.002023   0.003565
 S-SIGMA  H 12   0.000003   0.000005   0.000001   0.000001   0.000003   0.000002
 S-SIGMA  C 13   0.000004   0.000008   0.000001   0.000002   0.000004   0.000000
 P-SIGMA  C 13   0.000011   0.000018   0.000001   0.000005   0.000006   0.000001
   P-PI   C 13   0.000004   0.000004   0.000004   0.000002   0.000012   0.000001
 S-SIGMA  H 14   0.000002   0.000002   0.000000   0.000001   0.000007   0.000005
 S-SIGMA  C 15   0.000001   0.000001   0.000000   0.000000   0.000003   0.000000
 P-SIGMA  C 15   0.000000   0.000000   0.000001   0.000000   0.000027   0.000050
   P-PI   C 15   0.000009   0.000050   0.000021   0.000014   0.000691   0.000936
 S-SIGMA  H 16   0.000000   0.000000   0.000000   0.000000   0.000000   0.000000
 S-SIGMA  C 17   0.000000   0.000005   0.000003   0.000002   0.000093   0.000037
 P-SIGMA  C 17   0.000001   0.000011   0.000002   0.000003   0.000427   0.000345
   P-PI   C 17   0.000038   0.000102   0.000051   0.000034   0.001419   0.001383
 S-SIGMA  H 18   0.000001   0.000005   0.000001   0.000001   0.000000   0.000054
 S-SIGMA  C 19   0.000002   0.000003   0.000000   0.000000   0.000002   0.000006
 P-SIGMA  C 19   0.000009   0.000015   0.000001   0.000003   0.000001   0.000007
   P-PI   C 19   0.000000   0.000004   0.000001   0.000001   0.000015   0.000025
 S-SIGMA  H 20   0.000001   0.000001   0.000000   0.000000   0.000000   0.000001
 S-SIGMA  O 21   0.000000   0.000000   0.000000   0.000000   0.000000   0.000000
 P-SIGMA  O 21   0.000000   0.000000   0.000000   0.000000   0.000000   0.000000
   P-PI   O 21   0.000000   0.000000   0.000000   0.000000   0.000000   0.000000
 S-SIGMA  H 22   0.000000   0.000000   0.000000   0.000000   0.000000   0.000000
 S-SIGMA  H 23   0.000000   0.000000   0.000000   0.000000   0.000000   0.000000
 S-SIGMA  O 24   0.000001   0.000001   0.000005   0.000001   0.000001   0.000000
 P-SIGMA  O 24   0.000007   0.000002   0.000047   0.000018   0.000023   0.000006
   P-PI   O 24   0.000001   0.000001   0.000010   0.000005   0.000006   0.000001
 S-SIGMA  H 25   0.000001   0.000000   0.000001   0.000000   0.000000   0.000001
 S-SIGMA  H 26   0.000007   0.000007   0.000035   0.000003   0.000001   0.000003

                  S-SIGMA    P-SIGMA      P-PI     S-SIGMA    S-SIGMA    P-SIGMA
                    N  3       N  3       N  3       H  4       C  5       C  5
------------------------------------------------------------------------------
 S-SIGMA  O 27   0.000000   0.000000   0.000000   0.000000   0.000000   0.000000
 P-SIGMA  O 27   0.000000   0.000000   0.000000   0.000000   0.000002   0.000002
   P-PI   O 27   0.000000   0.000000   0.000000   0.000000   0.000001   0.000001
 S-SIGMA  H 28   0.000000   0.000000   0.000000   0.000000   0.000000   0.000000
 S-SIGMA  H 29   0.000000   0.000000   0.000000   0.000000   0.000000   0.000000
 S-SIGMA  O 30   0.000000   0.000005   0.000003   0.000000   0.000000   0.000000
 P-SIGMA  O 30   0.000003   0.000001   0.000004   0.000008   0.000001   0.000000
   P-PI   O 30   0.000007   0.000015   0.000013   0.000001   0.000001   0.000000
 S-SIGMA  H 31   0.000001   0.000036   0.000004   0.000045   0.000001   0.000001
 S-SIGMA  H 32   0.000000   0.000003   0.000002   0.000001   0.000000   0.000002
 S-SIGMA  O 33   0.000005   0.000014   0.000005   0.000007   0.000000   0.000000
 P-SIGMA  O 33   0.000024   0.000042   0.000026   0.000041   0.000001   0.000000
   P-PI   O 33   0.000024   0.000048   0.000033   0.000038   0.000001   0.000000
 S-SIGMA  H 34   0.000002   0.000006   0.000001   0.000004   0.000000   0.000000
 S-SIGMA  H 35   0.000022   0.000064   0.000042   0.000016   0.000000   0.000000
[...]
 PZ  N   3   0.00011     0.00004     0.76810     0.00001     0.00050     0.00000
  
  S  H   4  -0.00020    -0.00009     0.00051    -0.00001     0.00047     0.00001
  
  S  C   5  -0.00062    -0.00029    -0.01048    -0.00005     0.00476     0.00002
 PX  C   5   0.00030     0.00002     0.00460     0.00000     0.00028    -0.00001
 PY  C   5   0.00030     0.00018     0.03893     0.00001    -0.00191    -0.00003
 PZ  C   5  -0.00022    -0.00030     0.05102    -0.00011     0.00420    -0.00003
  
  S  H   6   0.00037     0.00015    -0.02210     0.00005    -0.01086     0.00000
  
  S  C   7  -0.00266     0.00036     0.02721     0.00003    -0.00066    -0.00004
 PX  C   7   0.00430     0.00075     0.00896     0.00005     0.00017    -0.00003
 PY  C   7   0.00290    -0.00030     0.02428    -0.00002    -0.00091     0.00003
 PZ  C   7  -0.00161    -0.00003     0.01947     0.00000    -0.00058    -0.00001
  
  S  H   8   0.00783     0.00013     0.00203    -0.00003    -0.00015    -0.00004
  
  S  H   9   0.00005     0.00001    -0.00305    -0.00002     0.00045    -0.00001
  
  S  C  10  -0.00006     0.00120    -0.00594     0.00008    -0.00004    -0.00009
 PX  C  10   0.00127     0.00126     0.00908    -0.00007    -0.00001    -0.00029
 PY  C  10   0.00099    -0.00076     0.00098    -0.00026    -0.00020    -0.00022
 PZ  C  10   0.00059     0.00103     0.00389    -0.00002    -0.00005    -0.00016
  
  S  C  11  -0.00038    -0.00098     0.00115    -0.00008    -0.00005    -0.00028
 PX  C  11   0.00007     0.00114    -0.00308     0.00013     0.00012    -0.00034
 PY  C  11  -0.00048    -0.00018    -0.00303     0.00009     0.00007     0.00026
 PZ  C  11  -0.00056    -0.00097    -0.00009    -0.00002    -0.00001    -0.00001
  
  S  H  12   0.00007     0.00037     0.00051     0.00002     0.00001     0.00008
  
  S  C  13  -0.00007    -0.00044    -0.00034    -0.00007    -0.00001     0.00020
 PX  C  13  -0.00031     0.00001    -0.00006     0.00004     0.00002     0.00011
 PY  C  13  -0.00047    -0.00023    -0.00107     0.00010     0.00003     0.00046
 PZ  C  13  -0.00035    -0.00040    -0.00024    -0.00002     0.00001     0.00042
  
  S  H  14  -0.00006    -0.00010     0.00029     0.00002    -0.00001     0.00021
  
  S  C  15  -0.00016    -0.00036    -0.00011     0.00011    -0.00002    -0.00358
 PX  C  15   0.00046     0.00043     0.00161    -0.00023    -0.00003    -0.00377
 PY  C  15   0.00043     0.00019     0.00212    -0.00014    -0.00007     0.00220
 PZ  C  15   0.00000    -0.00052     0.00128    -0.00000    -0.00006    -0.00072
  
  S  H  16   0.00008     0.00028    -0.00012     0.00004     0.00001     0.00779
  
  S  C  17  -0.00221    -0.01133     0.00070    -0.00074    -0.00014    -0.00025
 PX  C  17   0.00128     0.00853    -0.00246     0.00062     0.00025    -0.00027
 PY  C  17  -0.00095    -0.00401    -0.00314    -0.00026     0.00008     0.00032
 PZ  C  17  -0.00295    -0.01089    -0.00108    -0.00067    -0.00021    -0.00007
  
  S  H  18   0.00212     0.02372    -0.00044     0.00152     0.00010     0.00010
  
  S  C  19   0.00001    -0.00128    -0.00037    -0.00070    -0.00001     0.00032
 PX  C  19   0.00034    -0.00013    -0.00004    -0.00012     0.00001     0.00039
 PY  C  19   0.00097     0.00120    -0.00098     0.00054     0.00004     0.00046
 PZ  C  19  -0.00007    -0.00191    -0.00019    -0.00049    -0.00001    -0.00025
  
  S  H  20   0.00017     0.00207     0.00006     0.00133     0.00002     0.00021
  
  S  O  21  -0.00000    -0.00001     0.00000    -0.00000    -0.00000    -0.00038
 PX  O  21  -0.00000    -0.00000     0.00000    -0.00000    -0.00000    -0.23288
 PY  O  21   0.00000     0.00000    -0.00000    -0.00000    -0.00000     0.13006
 PZ  O  21  -0.00000    -0.00000     0.00000    -0.00000    -0.00000     0.96372
  
  S  H  22   0.00000     0.00001    -0.00001     0.00000     0.00000    -0.00004
  
  S  H  23   0.00000     0.00001    -0.00001     0.00000     0.00000     0.00004
  
  S  O  24  -0.02899     0.00041    -0.00063    -0.00000    -0.00036    -0.00000
 PX  O  24   0.97420    -0.00036     0.00035    -0.00003    -0.00004    -0.00000
 PY  O  24   0.15806     0.00031    -0.00163    -0.00001    -0.00071     0.00000
 PZ  O  24  -0.13351    -0.00069     0.00066    -0.00002     0.00013    -0.00000
  
  S  H  25   0.00176    -0.00129     0.00042    -0.00001     0.00033     0.00000
  
  S  H  26  -0.00023    -0.00123     0.00190    -0.00002     0.00082     0.00000
  
  S  O  27  -0.00276    -0.00048    -0.00007     0.00001    -0.00001     0.00000
 PX  O  27   0.00371     0.00059     0.00008    -0.00000     0.00003    -0.00000
 PY  O  27  -0.00395    -0.00063    -0.00012    -0.00000    -0.00003     0.00001
 PZ  O  27  -0.00133    -0.00024    -0.00005     0.00000    -0.00002     0.00000
  
  S  H  28   0.00192     0.00039     0.00009    -0.00002     0.00001     0.00000
  
  S  H  29   0.01019     0.00174     0.00015    -0.00002     0.00002    -0.00000
  
  S  O  30  -0.00001     0.00000     0.00067     0.00000    -0.00001    -0.00000
 PX  O  30  -0.00002    -0.00000     0.00098     0.00000    -0.00001    -0.00000
 PY  O  30  -0.00001     0.00000     0.00078     0.00000    -0.00001    -0.00000
 PZ  O  30  -0.00000     0.00000     0.00023     0.00000     0.00000     0.00000
  
  S  H  31   0.00003    -0.00000    -0.00290    -0.00000     0.00003     0.00000
  
  S  H  32   0.00002    -0.00000    -0.00077    -0.00000     0.00003     0.00000
  
  S  O  33   0.00126     0.00005     0.00088    -0.00000    -0.00021     0.00000
 PX  O  33   0.00109     0.00007     0.00186    -0.00001    -0.00046     0.00000
 PY  O  33   0.00124     0.00005     0.00132    -0.00000    -0.00030     0.00000
 PZ  O  33   0.00120     0.00004     0.00092    -0.00000    -0.00021     0.00000
  
  S  H  34  -0.00176    -0.00004    -0.00046     0.00000     0.00013    -0.00000
  
  S  H  35  -0.00425    -0.00017    -0.00274     0.00000     0.00054    -0.00000
  
  S  O  36  -0.00136    -0.01112     0.00004    -0.00289    -0.00025    -0.00000
 PX  O  36   0.00250     0.01228    -0.00009     0.15806     0.00049     0.00000
 PY  O  36   0.00038     0.00524     0.00001     0.88200    -0.00011     0.00000
 PZ  O  36   0.00170     0.01491    -0.00003    -0.44391     0.00004     0.00001
  
  S  H  37   0.00310     0.04660    -0.00008    -0.00014     0.00029     0.00001
  
  S  H  38   0.00136     0.00764    -0.00007    -0.00009     0.00058     0.00000
  
  S  O  39   0.00000     0.00000     0.00004     0.00000    -0.00001    -0.00000
 PX  O  39  -0.00001    -0.00000    -0.00007    -0.00000     0.00002     0.00000
 PY  O  39  -0.00000    -0.00000    -0.00006    -0.00000     0.00001     0.00000
 PZ  O  39   0.00001     0.00000    -0.00006     0.00000    -0.00002    -0.00000
  
  S  H  40  -0.00000    -0.00000    -0.00024    -0.00000     0.00001     0.00000
  
  S  H  41  -0.00001    -0.00000     0.00015    -0.00000     0.00004     0.00000
  
  S  O  42  -0.00013    -0.00005     0.00059    -0.00033    -0.02383    -0.00000
 PX  O  42   0.00008    -0.00012     0.00020    -0.00052    -0.42496    -0.00000
 PY  O  42   0.00013     0.00008    -0.00008     0.00020    -0.44109     0.00000
 PZ  O  42  -0.00008    -0.00003     0.00047    -0.00022     0.78548    -0.00000
  
  S  H  43   0.00014    -0.00000    -0.00119     0.00019     0.00148     0.00000
  
  S  H  44   0.00013     0.00020    -0.00131     0.00146     0.00087     0.00000
  
  S  O  45  -0.01585    -0.01531     0.00029    -0.00077    -0.00120    -0.00000
 PX  O  45   0.02003     0.77054    -0.00015     0.00020     0.00092     0.00000
 PY  O  45  -0.00727     0.31654     0.00087    -0.00184    -0.00297    -0.00001
 PZ  O  45   0.02474    -0.54969     0.00026    -0.00070    -0.00037     0.00000
  
  S  H  46   0.07450     0.00099    -0.00018    -0.00014     0.00104     0.00001
  
  S  H  47   0.00935    -0.00099    -0.00107     0.00419     0.00349     0.00001
  
  S  O  48  -0.00001     0.00000     0.00031     0.00000    -0.00003    -0.00000
 PX  O  48   0.00001    -0.00000    -0.00015    -0.00000     0.00001    -0.00000
 PY  O  48  -0.00000     0.00001     0.00064     0.00000    -0.00006    -0.00000
 PZ  O  48  -0.00001     0.00000    -0.00004    -0.00000     0.00001     0.00000
  
  S  H  49   0.00000     0.00000    -0.00034    -0.00000     0.00005     0.00001
  
  S  H  50   0.00000    -0.00001    -0.00111    -0.00000     0.00008     0.00000
  
  S  O  51  -0.00139     0.00001     0.00271    -0.00023    -0.01654    -0.00000
 PX  O  51  -0.00065    -0.00012    -0.00132    -0.00028    -0.01821    -0.00000
 PY  O  51   0.00020     0.00010     0.00280    -0.00005    -0.02633    -0.00000
 PZ  O  51   0.00147     0.00002    -0.00573    -0.00000    -0.00412     0.00000
  
  S  H  52   0.00320    -0.00015    -0.00827     0.00018     0.00922     0.00000
  
  S  H  53   0.00139    -0.00010    -0.00267     0.00050     0.07550     0.00000
  
  S  O  54   0.00000     0.00000    -0.00041    -0.00000     0.00006    -0.00000
 PX  O  54  -0.00000    -0.00000     0.00053     0.00000    -0.00010     0.00000
 PY  O  54  -0.00000    -0.00000     0.00019     0.00000    -0.00002     0.00000
 PZ  O  54  -0.00000    -0.00000     0.00033    -0.00000    -0.00002     0.00000
  
  S  H  55  -0.00000    -0.00000     0.00124     0.00000    -0.00023     0.00000
  
  S  H  56  -0.00001    -0.00000     0.00124     0.00000    -0.00010     0.00000
  
  S  H  57  -0.00004     0.00004    -0.00614    -0.00001    -0.00022    -0.00000
  
  S  H  58  -0.00025    -0.00001    -0.00701     0.00000    -0.00086    -0.00000




    ROOT NO.   73          74          75          76          77

           -10.13594   -10.11106    -9.71198    -9.63236    -9.44001
  
  
  S  C   1   0.00096    -0.00001    -0.00062    -0.00040     0.00033
 PX  C   1   0.00024    -0.00004    -0.00234    -0.00211     0.00164
 PY  C   1  -0.00209    -0.00004    -0.00241    -0.00242     0.00187
 PZ  C   1   0.00092    -0.00005    -0.00240    -0.00267     0.00215
  
  S  O   2  -0.00059    -0.00001    -0.00032    -0.00034     0.00025
 PX  O   2  -0.00029     0.00000     0.00020     0.00014    -0.00009
 PY  O   2  -0.00156     0.00000     0.00004     0.00009    -0.00010
 PZ  O   2   0.00061     0.00003     0.00134     0.00138    -0.00109
  
  S  N   3  -0.00012     0.00004     0.00267     0.00198    -0.00143
 PX  N   3   0.00002     0.00005     0.00252     0.00195    -0.00135
 PY  N   3   0.00001    -0.00006    -0.00243    -0.00205     0.00152
 PZ  N   3  -0.00002    -0.00001     0.00007    -0.00000     0.00012
  
  S  H   4   0.00037    -0.00005    -0.00249    -0.00205     0.00161
  
  S  C   5  -0.00004    -0.00031    -0.01839    -0.01782     0.01209
 PX  C   5   0.00001     0.00003     0.00348     0.00147    -0.00133
 PY  C   5  -0.00001     0.00037     0.01795     0.01942    -0.01396
 PZ  C   5  -0.00001     0.00026     0.01642     0.01664    -0.01176
  
  S  H   6   0.00003     0.00001     0.00240     0.00025    -0.00036
  
  S  C   7   0.00000     0.00006     0.00346     0.00151    -0.00117
 PX  C   7  -0.00003    -0.00019    -0.00221    -0.00276     0.00340
 PY  C   7  -0.00001    -0.00005     0.01266     0.01472    -0.00752
 PZ  C   7   0.00002     0.00005     0.00838     0.00825    -0.00468
  
  S  H   8   0.00007     0.00035     0.01726     0.02124    -0.01493
  
  S  H   9  -0.00000     0.00017     0.00627     0.00608    -0.00475
  
  S  C  10   0.00000     0.00046     0.00505     0.00974    -0.00577
 PX  C  10  -0.00000     0.00266     0.26174     0.25770    -0.13273
 PY  C  10   0.00000     0.00309     0.34261     0.34080    -0.17428
 PZ  C  10  -0.00000     0.00223     0.16194     0.16501    -0.08611
  
  S  C  11   0.00000    -0.00011    -0.00141     0.03093    -0.00036
 PX  C  11  -0.00000    -0.00229    -0.00525     0.38526     0.00648
 PY  C  11   0.00000    -0.00327    -0.00798     0.55236     0.00809
 PZ  C  11   0.00000    -0.00156    -0.00319     0.27263     0.00476
  
  S  H  12  -0.00000     0.00014    -0.00014    -0.00434     0.00201
  
  S  C  13   0.00000     0.00002     0.00055    -0.00395    -0.00441
 PX  C  13   0.00000    -0.00014    -0.10174     0.22551     0.25471
 PY  C  13   0.00000    -0.00023    -0.15093     0.33676     0.38117
 PZ  C  13   0.00000    -0.00006    -0.08928     0.19212     0.21923
  
  S  H  14   0.00000     0.00006    -0.00098     0.00128     0.00288
  
  S  C  15   0.00000     0.00022     0.00160    -0.00133     0.01834
 PX  C  15  -0.00000     0.00284     0.01141    -0.01692     0.36508
 PY  C  15   0.00000     0.00476     0.02009    -0.02621     0.53878
 PZ  C  15   0.00000     0.00280     0.00960    -0.01459     0.27597
  
  S  H  16  -0.00000     0.00018     0.00040     0.00083    -0.00464
  
  S  C  17   0.00002    -0.00114    -0.03070    -0.00246     0.00270
 PX  C  17  -0.00002     0.00177     0.44178    -0.00189    -0.00563
 PY  C  17   0.00000     0.00167     0.53024    -0.00425    -0.00296
 PZ  C  17   0.00002     0.00084     0.22261     0.00283    -0.00502
  
  S  H  18   0.00000     0.00083     0.00494    -0.00240     0.00041
  
  S  C  19   0.00000    -0.00040    -0.00963     0.00580    -0.00719
 PX  C  19  -0.00000    -0.00630     0.25740    -0.13202     0.23809
 PY  C  19  -0.00001    -0.00735     0.36407    -0.18706     0.33688
 PZ  C  19  -0.00000    -0.00316     0.13136    -0.06719     0.12196
  
  S  H  20  -0.00000     0.00103     0.00213    -0.00211     0.00221
  
  S  O  21   0.00000     0.00001    -0.00002     0.00000     0.00028
 PX  O  21   0.00000     0.00000    -0.00005    -0.00002     0.00050
 PY  O  21   0.00000     0.00000     0.00004     0.00003    -0.00043
 PZ  O  21   0.00000     0.00000     0.00001    -0.00000     0.00007
  
  S  H  22  -0.00000    -0.00001     0.00008     0.00002    -0.00093
  
  S  H  23  -0.00000    -0.00001     0.00007     0.00002    -0.00101
  
  S  O  24   0.00113     0.00022     0.00030    -0.00041     0.00028
 PX  O  24  -0.00032    -0.00016     0.00004     0.00003     0.00005
 PY  O  24   0.00163    -0.00018    -0.00053    -0.00066     0.00047
 PZ  O  24  -0.00090    -0.00060    -0.00030     0.00049    -0.00039
  
  S  H  25  -0.00145    -0.00129    -0.00160     0.00064    -0.00035
  
  S  H  26  -0.00433    -0.00007    -0.00021     0.00126    -0.00081
  
  S  O  27   0.00003     0.00137     0.00759    -0.00120     0.00203
 PX  O  27  -0.00005     0.57663    -0.00812     0.00014    -0.00131
 PY  O  27   0.00004     0.31435     0.00610    -0.00055     0.00155
 PZ  O  27   0.00002     0.75397     0.00423    -0.00132     0.00206
  
  S  H  28  -0.00002     0.00005    -0.01291     0.00371    -0.00553
  
  S  H  29  -0.00007    -0.00000    -0.03230     0.00293    -0.00447
  
  S  O  30  -0.00000    -0.00000    -0.00013    -0.00014     0.00010
 PX  O  30  -0.00000    -0.00001    -0.00017    -0.00020     0.00014
 PY  O  30  -0.00000    -0.00000    -0.00013    -0.00017     0.00010
 PZ  O  30  -0.00000    -0.00000    -0.00004    -0.00006     0.00003
  
  S  H  31   0.00000     0.00001     0.00032     0.00046    -0.00028
  
  S  H  32   0.00000     0.00001     0.00030     0.00028    -0.00025
  
  S  O  33  -0.00121     0.00000    -0.00003    -0.00005     0.00004
 PX  O  33  -0.30623     0.00000    -0.00006    -0.00010     0.00008
 PY  O  33   0.79694    -0.00000    -0.00005    -0.00007     0.00005
 PZ  O  33  -0.52065     0.00000    -0.00003    -0.00005     0.00004
  
  S  H  34  -0.00003    -0.00000     0.00003     0.00006    -0.00004
  
  S  H  35   0.00003    -0.00000     0.00011     0.00016    -0.00012
  
  S  O  36   0.00001    -0.00014    -0.00015     0.00010    -0.00009
 PX  O  36  -0.00003     0.00019     0.00012    -0.00010     0.00008
 PY  O  36  -0.00000     0.00007     0.00004    -0.00002     0.00001
 PZ  O  36  -0.00002     0.00022     0.00011    -0.00014     0.00015
  
  S  H  37  -0.00003     0.00055     0.00076    -0.00035     0.00021
  
  S  H  38  -0.00001     0.00007     0.00031    -0.00018     0.00016
  
  S  O  39  -0.00001     0.00000     0.00005     0.00004    -0.00003
 PX  O  39   0.00001    -0.00000    -0.00006    -0.00005     0.00004
 PY  O  39   0.00001    -0.00000    -0.00003    -0.00003     0.00002
 PZ  O  39  -0.00001     0.00000     0.00007     0.00006    -0.00005
  
  S  H  40   0.00001    -0.00000    -0.00005    -0.00003     0.00003
  
  S  H  41   0.00003    -0.00000    -0.00016    -0.00012     0.00011
  
  S  O  42   0.00000    -0.00001    -0.00017    -0.00006     0.00005
 PX  O  42  -0.00000    -0.00000    -0.00018    -0.00003     0.00002
 PY  O  42  -0.00000     0.00000     0.00002    -0.00001     0.00002
 PZ  O  42   0.00000    -0.00000    -0.00003     0.00001    -0.00001
  
  S  H  43  -0.00000     0.00001     0.00024     0.00014    -0.00013
  
  S  H  44  -0.00000     0.00001     0.00074     0.00013    -0.00013
  
  S  O  45   0.00015    -0.00051     0.00105    -0.00014     0.00011
 PX  O  45  -0.00021     0.00055    -0.00126     0.00019    -0.00015
 PY  O  45   0.00010    -0.00031     0.00058    -0.00009     0.00007
 PZ  O  45  -0.00023     0.00068    -0.00121     0.00016    -0.00022
  
  S  H  46  -0.00050     0.00216    -0.00612     0.00074    -0.00025
  
  S  H  47  -0.00014     0.00047    -0.00121     0.00024    -0.00020
  
  S  O  48   0.00000    -0.00000     0.00018     0.00129    -0.00016
 PX  O  48  -0.00000    -0.00001     0.00059     0.00056    -0.00029
 PY  O  48   0.00000    -0.00001     0.00006     0.00127    -0.00002
 PZ  O  48  -0.00000     0.00001    -0.00002    -0.00184     0.00012
  
  S  H  49  -0.00000    -0.00001    -0.00070    -0.00668     0.00105
  
  S  H  50  -0.00000     0.00000    -0.00018    -0.00285     0.00036
  
  S  O  51   0.00003    -0.00003    -0.00012    -0.00016     0.00013
 PX  O  51   0.00002    -0.00003     0.00004     0.00004    -0.00002
 PY  O  51  -0.00000     0.00002    -0.00023    -0.00017     0.00013
 PZ  O  51  -0.00001     0.00002     0.00024     0.00031    -0.00025
  
  S  H  52   0.00003     0.00003     0.00035     0.00057    -0.00043
  
  S  H  53  -0.00009     0.00003     0.00023     0.00021    -0.00018
  
  S  O  54  -0.00000     0.00000     0.00001     0.00000    -0.00000
 PX  O  54   0.00000    -0.00000    -0.00001    -0.00001     0.00001
 PY  O  54   0.00000    -0.00000    -0.00000    -0.00000     0.00000
 PZ  O  54   0.00000    -0.00000    -0.00001    -0.00001     0.00001
  
  S  H  55   0.00000    -0.00000    -0.00001    -0.00000     0.00001
  
  S  H  56   0.00001    -0.00000    -0.00002    -0.00001     0.00001
  
  S  H  57   0.00072     0.00002     0.00090     0.00074    -0.00057
  
  S  H  58   0.00003     0.00004     0.00233     0.00277    -0.00145

          BONDING CONTRIBUTION OF EACH M.O.

  1.8032  1.6388  1.8983  1.6441  1.8379  1.6355  0.0568  0.0003  1.7345  1.7123
  1.6945  0.0036  1.6693  1.6254  1.6480  1.7205  1.6769  1.6438  1.6149  1.7159
  1.7350  0.0001  1.6930  1.6505  1.6172  1.7463  1.9987  1.6345  1.9947  1.9978
  1.6644  0.0157  1.8832  1.7507  1.6065  1.7121  0.0002  1.9978  1.9924  0.0250
  0.0002  0.0332  1.6582  1.9968  1.9945  0.0439  0.0002  0.0006  0.0027  1.9950
  1.9519  1.9556  1.9289  1.9388  1.9441  1.9628  1.9317  1.9519  1.9521  1.0596
  0.0007  0.0021  0.0022  0.0000  0.0397  0.2890  0.0464  0.0233  1.0177  0.0002
  0.0465  0.0006  0.0002  0.0012  1.9874  1.9545  2.0274 -1.9765 -2.0223 -2.0016
 -1.9026 -1.9950 -1.7353 -1.8092 -1.6917 -1.7184 -1.9128 -1.7262 -1.9309 -1.8913
 -1.7931 -1.8689 -1.8654 -1.7729 -1.7837 -1.7650 -1.9369 -1.9267 -1.8180 -1.7993
 -1.6853 -1.7719 -1.9841 -1.7442 -1.8896 -1.8489 -1.8987 -1.8378 -1.8456 -1.8515
 -1.7270 -1.9587 -1.7291 -1.9387 -1.9608 -1.9245 -1.7488 -1.9623 -1.9553 -1.6926
 -1.7250 -1.6862 -1.6675 -1.6530 -1.6962 -1.6752 -1.7298

           DATA FOR GRAPH WRITTEN TO DISK

 **********************
 *                    *
 * JOB ENDED NORMALLY *
 *                    *
 **********************



 TOTAL JOB TIME:             0.46 SECONDS

 == MOPAC DONE ==
