 *******************************************************************************
 ** Site#: 34139        For non-commercial use only    Version 20.015L 64BITS **
 *******************************************************************************
 ** Cite this program as: MOPAC2016, Version: 20.015L, James J. P. Stewart,   **
 ** Stewart Computational Chemistry, web: HTTP://OpenMOPAC.net. Days left: 276**
 *******************************************************************************
 **                                                                           **
 **                                MOPAC2016                                  **
 **                                                                           **
 *******************************************************************************

                              PM7 CALCULATION RESULTS

 *******************************************************************************
 *  CALCULATION DONE:                                Tue Apr 14 14:51:39 2020  *
 *  PM7        - The PM7 Hamiltonian to be used
 *  QMMM       - Generate energies and gradients for use in MM codes
 *  DIPOLE     - PRINT DIPOLE INSTEAD OF ENERGY IN TRAJECTORIES
 *  GEO-OK     - OVERRIDE INTERATOMIC DISTANCE AND OTHER SAFETY CHECKS
 *
 *
 *
 *                 CHARGE ON SYSTEM = 0
 *
 *
 *
 *  LET        - OVERRIDE SOME SAFETY CHECKS
 *  XYZ        - CARTESIAN COORDINATE SYSTEM TO BE USED
 *  FORCE      - FORCE CALCULATION SPECIFIED
 *  1SCF       - DO 1 SCF AND THEN STOP 
 *  T=         - A TIME OF      2.0 MINUTES REQUESTED
 *  DUMP=N     - RESTART FILE WRITTEN EVERY  7200.000 SECONDS
 *  CUTOFF=    - CUTOFF FOR NDDO AND DIPOLE INTERACTIONS =  9.00A
 *  AUX        - OUTPUT AUXILIARY INFORMATION
 *  GRADIENTS  - ALL GRADIENTS TO BE PRINTED
 *  VECTORS    - FINAL EIGENVECTORS TO BE PRINTED
 *  EIGEN      - CONVERT LMO's INTO EIGENVECTORS
 *  LARGE      - EXPANDED OUTPUT TO BE PRINTED
 *  AIGOUT     - IN ARC FILE, INCLUDE AB-INITIO GEOMETRY
 *  GRAPH      - GENERATE FILE FOR GRAPHICS
 *  ALLVEC     - PRINT ALL EIGENVECTORS
 *  LOCALIZE   - LOCALIZED ORBITALS TO BE PRINTED
 *  PI         - BONDS MATRIX, SPLIT INTO SIGMA-PI-DELL COMPONENTS, TO BE PRINTED
 *******************************************************************************
PM7 XYZ T=2M 1SCF LOCALIZE AIGOUT GRAPH GRAPHF LARGE DIPOLE PI FORCE CUTOFF=9.0 AUX LET GRAD QMMM GEO-OK EIGEN VECTORS ALLVEC CHARGE=0
 Test System

   ATOM   CHEMICAL          X               Y               Z
  NUMBER   SYMBOL      (ANGSTROMS)     (ANGSTROMS)     (ANGSTROMS)
 
     1       C          3.53852600  *   0.60903900  *   0.80375800  *
     2       O          3.29703700  *  -0.21642100  *   1.64945400  *
     3       N          4.78894900  *   0.74053400  *   0.26665000  *
     4       H          4.94884800  *   1.47695300  *  -0.42571300  *
     5       C          6.00077800  *   0.02338100  *   0.72025000  *
     6       H          6.01597900  *  -0.10689300  *   1.83303800  *
     7       C          6.06679800  *  -1.37165800  *   0.05125200  *
     8       H          5.04543900  *  -1.66202800  *  -0.24903800  *
     9       H          6.61153700  *  -1.35570400  *  -0.92006900  *
    10       C          6.62336900  *  -2.43632700  *   0.95219900  *
    11       C          5.80291900  *  -3.28086400  *   1.70052900  *
    12       H          4.71461800  *  -3.09505800  *   1.68143100  *
    13       C          6.32846600  *  -4.32684000  *   2.40156600  *
    14       H          5.66318200  *  -5.00789300  *   2.95817100  *
    15       C          7.69735100  *  -4.55283200  *   2.39699800  *
    16       H          8.13081400  *  -5.39153000  *   2.96053500  *
    17       C          8.02402500  *  -2.65863100  *   0.95945100  *
    18       H          8.68358000  *  -2.01379300  *   0.37500200  *
    19       C          8.52638400  *  -3.72898600  *   1.69924700  *
    20       H          9.62265200  *  -3.87086600  *   1.69996500  *
    21       O          6.56197000  *   4.12373500  *  -1.97010000  *
    22       H          5.66130500  *   4.03716000  *  -1.52855300  *
    23       H          7.03425500  *   3.35969600  *  -1.59510200  *
    24       O          3.15342000  *  -2.97599300  *   3.97616400  *
    25       H          2.19168100  *  -2.99895700  *   4.28221400  *
    26       H          3.20623000  *  -2.16655400  *   3.44351700  *
    27       O         11.36116400  *  -2.42678100  *   0.07611400  *
    28       H         12.22068200  *  -2.12886300  *  -0.29610900  *
    29       H         11.11935700  *  -1.61914000  *   0.65212400  *
    30       O          9.79219200  *  -1.47889400  *   3.58777300  *
    31       H         10.31900300  *  -2.27640600  *   3.39442900  *
    32       H         10.30811900  *  -0.80230300  *   3.03139200  *
    33       O         11.79537100  *  -5.00099000  *   0.72360100  *
    34       H         11.70073700  *  -4.06713700  *   0.43974900  *
    35       H         11.00868600  *  -5.44078500  *   0.28669700  *
    36       O          9.63443000  *  -3.24086900  *  -1.82147100  *
    37       H         10.30118900  *  -2.87889400  *  -1.21206700  *
    38       H          9.39914100  *  -2.50562100  *  -2.41592000  *
    39       O          4.46496000  *  -0.92047400  *  -3.68928700  *
    40       H          4.68105500  *  -0.20654800  *  -3.09468300  *
    41       H          3.53947400  *  -0.63798700  *  -4.00405300  *
    42       O          6.98938400  *  -6.47669600  *  -0.14706200  *
    43       H          7.93855900  *  -6.55886100  *  -0.46285400  *
    44       H          7.07027800  *  -5.72725500  *   0.45450100  *
    45       O          7.13360500  *  -0.28139100  *   3.90427800  *
    46       H          8.02480000  *  -0.64182500  *   3.85003600  *
    47       H          6.57351500  *  -1.02855300  *   4.27160700  *
    48       O          4.59115500  *   1.33729900  *   4.69208500  *
    49       H          4.73654000  *   2.17104400  *   4.15853600  *
    50       H          5.32763100  *   0.78643700  *   4.42512700  *
    51       O          6.22289300  *  -2.96750700  *  -3.54278200  *
    52       H          7.07436700  *  -2.45848600  *  -3.67529600  *
    53       H          5.56033500  *  -2.28120600  *  -3.48345500  *
    54       O          4.69292000  *   1.95455400  *  -3.05406500  *
    55       H          5.25122600  *   2.63263900  *  -3.44797500  *
    56       H          4.27523000  *   2.48809700  *  -2.29720200  *
    57       O          1.90577900  *   0.42514300  *   3.91015800  *
    58       H          2.51926300  *   0.38307200  *   3.15324100  *
    59       H          2.45171000  *   0.91400700  *   4.57690600  *
    60       O         11.79606100  *  -3.84077900  *   3.15664900  *
    61       H         12.58278700  *  -3.26029600  *   3.02674400  *
    62       H         11.75916600  *  -4.37492800  *   2.33601500  *
    63       O          3.96708200  *  -5.52252300  *   5.00843200  *
    64       H          3.89935800  *  -4.80939600  *   4.36003200  *
    65       H          4.63279900  *  -5.18096200  *   5.65915600  *
    66       O          8.28886200  *  -6.70378400  *   6.00453100  *
    67       H          7.81803500  *  -6.01085700  *   5.52116200  *
    68       H          7.86426200  *  -6.70609400  *   6.88311700  *
    69       H          2.77532400  *   1.27260700  *   0.39718600  *
    70       H          6.83977800  *   0.64446200  *   0.40650300  *
 


          CARTESIAN COORDINATES 

    NO.       ATOM           X           Y           Z

     1         C          3.5385      0.6090      0.8038
     2         O          3.2970     -0.2164      1.6495
     3         N          4.7889      0.7405      0.2666
     4         H          4.9488      1.4770     -0.4257
     5         C          6.0008      0.0234      0.7203
     6         H          6.0160     -0.1069      1.8330
     7         C          6.0668     -1.3717      0.0513
     8         H          5.0454     -1.6620     -0.2490
     9         H          6.6115     -1.3557     -0.9201
    10         C          6.6234     -2.4363      0.9522
    11         C          5.8029     -3.2809      1.7005
    12         H          4.7146     -3.0951      1.6814
    13         C          6.3285     -4.3268      2.4016
    14         H          5.6632     -5.0079      2.9582
    15         C          7.6974     -4.5528      2.3970
    16         H          8.1308     -5.3915      2.9605
    17         C          8.0240     -2.6586      0.9595
    18         H          8.6836     -2.0138      0.3750
    19         C          8.5264     -3.7290      1.6992
    20         H          9.6227     -3.8709      1.7000
    21         O          6.5620      4.1237     -1.9701
    22         H          5.6613      4.0372     -1.5286
    23         H          7.0343      3.3597     -1.5951
    24         O          3.1534     -2.9760      3.9762
    25         H          2.1917     -2.9990      4.2822
    26         H          3.2062     -2.1666      3.4435
    27         O         11.3612     -2.4268      0.0761
    28         H         12.2207     -2.1289     -0.2961
    29         H         11.1194     -1.6191      0.6521
    30         O          9.7922     -1.4789      3.5878
    31         H         10.3190     -2.2764      3.3944
    32         H         10.3081     -0.8023      3.0314
    33         O         11.7954     -5.0010      0.7236
    34         H         11.7007     -4.0671      0.4397
    35         H         11.0087     -5.4408      0.2867
    36         O          9.6344     -3.2409     -1.8215
    37         H         10.3012     -2.8789     -1.2121
    38         H          9.3991     -2.5056     -2.4159
    39         O          4.4650     -0.9205     -3.6893
    40         H          4.6811     -0.2065     -3.0947
    41         H          3.5395     -0.6380     -4.0041
    42         O          6.9894     -6.4767     -0.1471
    43         H          7.9386     -6.5589     -0.4629
    44         H          7.0703     -5.7273      0.4545
    45         O          7.1336     -0.2814      3.9043
    46         H          8.0248     -0.6418      3.8500
    47         H          6.5735     -1.0286      4.2716
    48         O          4.5912      1.3373      4.6921
    49         H          4.7365      2.1710      4.1585
    50         H          5.3276      0.7864      4.4251
    51         O          6.2229     -2.9675     -3.5428
    52         H          7.0744     -2.4585     -3.6753
    53         H          5.5603     -2.2812     -3.4835
    54         O          4.6929      1.9546     -3.0541
    55         H          5.2512      2.6326     -3.4480
    56         H          4.2752      2.4881     -2.2972
    57         O          1.9058      0.4251      3.9102
    58         H          2.5193      0.3831      3.1532
    59         H          2.4517      0.9140      4.5769
    60         O         11.7961     -3.8408      3.1566
    61         H         12.5828     -3.2603      3.0267
    62         H         11.7592     -4.3749      2.3360
    63         O          3.9671     -5.5225      5.0084
    64         H          3.8994     -4.8094      4.3600
    65         H          4.6328     -5.1810      5.6592
    66         O          8.2889     -6.7038      6.0045
    67         H          7.8180     -6.0109      5.5212
    68         H          7.8643     -6.7061      6.8831
    69         H          2.7753      1.2726      0.3972
    70         H          6.8398      0.6445      0.4065

 General Reference for PM7:
 "Optimization of Parameters for Semiempirical Methods VI: More Modifications to the 
 NDDO Approximations and Re-optimization of Parameters", J. J. P. Stewart, J. Mol. Mod., 1:32, 19 (2013)
 http://www.springerlink.com/openurl.asp?genre=article&id=doi:10.1007/s00894-012-1667-x

           Empirical Formula: C9 H43 N O17  =    70 atoms



      MOLECULAR POINT GROUP   :   C1  


      RHF CALCULATION, NO. OF DOUBLY OCCUPIED LEVELS = 93


 -------------------------------------------------------------------------------
 PM7 XYZ T=2M 1SCF LOCALIZE AIGOUT GRAPH GRAPHF LARGE DIPOLE PI FORCE CUTOFF=9.0 AUX LET GRAD QMMM GEO-OK EIGEN VECTORS ALLVEC CHARGE=0
 Test System



     1SCF WAS SPECIFIED, SO BFGS WAS NOT USED                 
     SCF FIELD WAS ACHIEVED                                   


                              PM7 CALCULATION
                                                       MOPAC2016 (Version: 20.015L)
                                                       Tue Apr 14 14:51:39 2020
                                                       No. of days remaining = 276




          FINAL HEAT OF FORMATION =      -1290.51427 KCAL/MOL =   -5399.51170 KJ/MOL


          TOTAL ENERGY            =      -6910.75559 EV
          ELECTRONIC ENERGY       =     -53162.17683 EV  POINT GROUP:     C1  
          CORE-CORE REPULSION     =      46251.42124 EV
          COSMO AREA              =        530.91 SQUARE ANGSTROMS
          COSMO VOLUME            =        672.58 CUBIC ANGSTROMS

          GRADIENT NORM           =        207.58555 = 24.81122 PER ATOM
          IONIZATION POTENTIAL    =          8.764417 EV
          HOMO LUMO ENERGIES (EV) =         -8.764  0.871
          NO. OF FILLED LEVELS    =         93
          MOLECULAR WEIGHT        =        437.4352

          MOLECULAR DIMENSIONS (Angstroms)

            Atom       Atom       Distance
            H    68    H    55    14.16938
            O    57    H    28    11.41682
            H    49    O    42     7.75590


          SCF CALCULATIONS        =          1
 
          WALL-CLOCK TIME         =          0.543 SECONDS
          COMPUTATION TIME        =          0.203 SECONDS

          LARGEST ATOMIC GRADIENTS

          Atom     Label                     Cartesian Gradients           Cartesian Coordinates       |Gradient|
                                           X          Y          Z        X          Y          Z

            19       C                 -36.289    -29.726     23.419    8.52638   -3.72899    1.69925     52.430
            30       O                 -33.408    -19.485     30.247    9.79219   -1.47889    3.58777     49.099
            21       O                  28.006     26.670    -22.524    6.56197    4.12373   -1.97010     44.754
            54       O                   6.932    -28.282    -33.628    4.69292    1.95455   -3.05407     44.484
            11       C                  24.654    -29.896     20.124    5.80292   -3.28086    1.70053     43.664
            27       O                 -10.987    -35.903     -7.304   11.36116   -2.42678    0.07611     38.250
            15       C                   1.310     29.578    -23.985    7.69735   -4.55283    2.39700     38.103
            42       O                 -37.146     -3.652      1.922    6.98938   -6.47670   -0.14706     37.375
             2       O                   6.860     15.243    -32.909    3.29704   -0.21642    1.64945     36.911
            10       C                 -34.070     -4.497     11.378    6.62337   -2.43633    0.95220     36.201



       FINAL  POINT  AND  DERIVATIVES

   PARAMETER     ATOM    TYPE            VALUE        GRADIENT
      1          1  C    CARTESIAN X     3.538526    -15.789740  KCAL/ANGSTROM
      2          1  C    CARTESIAN Y     0.609039     -4.358422  KCAL/ANGSTROM
      3          1  C    CARTESIAN Z     0.803758     16.313714  KCAL/ANGSTROM
      4          2  O    CARTESIAN X     3.297037      6.859509  KCAL/ANGSTROM
      5          2  O    CARTESIAN Y    -0.216421     15.243179  KCAL/ANGSTROM
      6          2  O    CARTESIAN Z     1.649454    -32.908831  KCAL/ANGSTROM
      7          3  N    CARTESIAN X     4.788949     -6.531863  KCAL/ANGSTROM
      8          3  N    CARTESIAN Y     0.740534    -16.286754  KCAL/ANGSTROM
      9          3  N    CARTESIAN Z     0.266650      4.151545  KCAL/ANGSTROM
     10          4  H    CARTESIAN X     4.948848     -3.213883  KCAL/ANGSTROM
     11          4  H    CARTESIAN Y     1.476953     10.656137  KCAL/ANGSTROM
     12          4  H    CARTESIAN Z    -0.425713     -2.717880  KCAL/ANGSTROM
     13          5  C    CARTESIAN X     6.000778     19.981986  KCAL/ANGSTROM
     14          5  C    CARTESIAN Y     0.023381      9.451373  KCAL/ANGSTROM
     15          5  C    CARTESIAN Z     0.720250      3.994628  KCAL/ANGSTROM
     16          6  H    CARTESIAN X     6.015979      2.637982  KCAL/ANGSTROM
     17          6  H    CARTESIAN Y    -0.106893     -2.256886  KCAL/ANGSTROM
     18          6  H    CARTESIAN Z     1.833038      3.832842  KCAL/ANGSTROM
     19          7  C    CARTESIAN X     6.066798      0.588874  KCAL/ANGSTROM
     20          7  C    CARTESIAN Y    -1.371658      1.162466  KCAL/ANGSTROM
     21          7  C    CARTESIAN Z     0.051252     -2.794160  KCAL/ANGSTROM
     22          8  H    CARTESIAN X     5.045439      7.399738  KCAL/ANGSTROM
     23          8  H    CARTESIAN Y    -1.662028      4.277359  KCAL/ANGSTROM
     24          8  H    CARTESIAN Z    -0.249038      1.782186  KCAL/ANGSTROM
     25          9  H    CARTESIAN X     6.611537     -0.365448  KCAL/ANGSTROM
     26          9  H    CARTESIAN Y    -1.355704     -1.031856  KCAL/ANGSTROM
     27          9  H    CARTESIAN Z    -0.920069     -5.686553  KCAL/ANGSTROM
     28         10  C    CARTESIAN X     6.623369    -34.070497  KCAL/ANGSTROM
     29         10  C    CARTESIAN Y    -2.436327     -4.496860  KCAL/ANGSTROM
     30         10  C    CARTESIAN Z     0.952199     11.378447  KCAL/ANGSTROM
     31         11  C    CARTESIAN X     5.802919     24.654180  KCAL/ANGSTROM
     32         11  C    CARTESIAN Y    -3.280864    -29.895679  KCAL/ANGSTROM
     33         11  C    CARTESIAN Z     1.700529     20.123793  KCAL/ANGSTROM
     34         12  H    CARTESIAN X     4.714618     -5.177049  KCAL/ANGSTROM
     35         12  H    CARTESIAN Y    -3.095058      3.101090  KCAL/ANGSTROM
     36         12  H    CARTESIAN Z     1.681431     -2.799783  KCAL/ANGSTROM
     37         13  C    CARTESIAN X     6.328466      6.267727  KCAL/ANGSTROM
     38         13  C    CARTESIAN Y    -4.326840     27.228741  KCAL/ANGSTROM
     39         13  C    CARTESIAN Z     2.401566    -21.994890  KCAL/ANGSTROM
     40         14  H    CARTESIAN X     5.663182     -2.744079  KCAL/ANGSTROM
     41         14  H    CARTESIAN Y    -5.007893     -2.833864  KCAL/ANGSTROM
     42         14  H    CARTESIAN Z     2.958171      2.219772  KCAL/ANGSTROM
     43         15  C    CARTESIAN X     7.697351      1.309942  KCAL/ANGSTROM
     44         15  C    CARTESIAN Y    -4.552832     29.577809  KCAL/ANGSTROM
     45         15  C    CARTESIAN Z     2.396998    -23.984861  KCAL/ANGSTROM
     46         16  H    CARTESIAN X     8.130814      4.850388  KCAL/ANGSTROM
     47         16  H    CARTESIAN Y    -5.391530     -1.491621  KCAL/ANGSTROM
     48         16  H    CARTESIAN Z     2.960535      0.481926  KCAL/ANGSTROM
     49         17  C    CARTESIAN X     8.024025     27.287177  KCAL/ANGSTROM
     50         17  C    CARTESIAN Y    -2.658631     -7.116350  KCAL/ANGSTROM
     51         17  C    CARTESIAN Z     0.959451      0.813406  KCAL/ANGSTROM
     52         18  H    CARTESIAN X     8.683580      3.767368  KCAL/ANGSTROM
     53         18  H    CARTESIAN Y    -2.013793      4.304293  KCAL/ANGSTROM
     54         18  H    CARTESIAN Z     0.375002     -2.030493  KCAL/ANGSTROM
     55         19  C    CARTESIAN X     8.526384    -36.288571  KCAL/ANGSTROM
     56         19  C    CARTESIAN Y    -3.728986    -29.726076  KCAL/ANGSTROM
     57         19  C    CARTESIAN Z     1.699247     23.418581  KCAL/ANGSTROM
     58         20  H    CARTESIAN X     9.622652      6.658050  KCAL/ANGSTROM
     59         20  H    CARTESIAN Y    -3.870866      3.714914  KCAL/ANGSTROM
     60         20  H    CARTESIAN Z     1.699965     -2.868113  KCAL/ANGSTROM
     61         21  O    CARTESIAN X     6.561970     28.006099  KCAL/ANGSTROM
     62         21  O    CARTESIAN Y     4.123735     26.669850  KCAL/ANGSTROM
     63         21  O    CARTESIAN Z    -1.970100    -22.524182  KCAL/ANGSTROM
     64         22  H    CARTESIAN X     5.661305    -22.302193  KCAL/ANGSTROM
     65         22  H    CARTESIAN Y     4.037160    -14.848906  KCAL/ANGSTROM
     66         22  H    CARTESIAN Z    -1.528553     12.217543  KCAL/ANGSTROM
     67         23  H    CARTESIAN X     7.034255     -5.966386  KCAL/ANGSTROM
     68         23  H    CARTESIAN Y     3.359696    -12.113147  KCAL/ANGSTROM
     69         23  H    CARTESIAN Z    -1.595102      9.297453  KCAL/ANGSTROM
     70         24  O    CARTESIAN X     3.153420     24.078668  KCAL/ANGSTROM
     71         24  O    CARTESIAN Y    -2.975993     -9.021869  KCAL/ANGSTROM
     72         24  O    CARTESIAN Z     3.976164     -3.166302  KCAL/ANGSTROM
     73         25  H    CARTESIAN X     2.191681    -25.629294  KCAL/ANGSTROM
     74         25  H    CARTESIAN Y    -2.998957      1.340543  KCAL/ANGSTROM
     75         25  H    CARTESIAN Z     4.282214      6.454597  KCAL/ANGSTROM
     76         26  H    CARTESIAN X     3.206230     -1.251298  KCAL/ANGSTROM
     77         26  H    CARTESIAN Y    -2.166554      5.271820  KCAL/ANGSTROM
     78         26  H    CARTESIAN Z     3.443517     -2.619021  KCAL/ANGSTROM
     79         27  O    CARTESIAN X    11.361164    -10.987269  KCAL/ANGSTROM
     80         27  O    CARTESIAN Y    -2.426781    -35.902935  KCAL/ANGSTROM
     81         27  O    CARTESIAN Z     0.076114     -7.304052  KCAL/ANGSTROM
     82         28  H    CARTESIAN X    12.220682      6.198212  KCAL/ANGSTROM
     83         28  H    CARTESIAN Y    -2.128863     10.774424  KCAL/ANGSTROM
     84         28  H    CARTESIAN Z    -0.296109      2.579735  KCAL/ANGSTROM
     85         29  H    CARTESIAN X    11.119357      2.432180  KCAL/ANGSTROM
     86         29  H    CARTESIAN Y    -1.619140     26.560536  KCAL/ANGSTROM
     87         29  H    CARTESIAN Z     0.652124     10.764835  KCAL/ANGSTROM
     88         30  O    CARTESIAN X     9.792192    -33.408460  KCAL/ANGSTROM
     89         30  O    CARTESIAN Y    -1.478894    -19.485185  KCAL/ANGSTROM
     90         30  O    CARTESIAN Z     3.587773     30.247219  KCAL/ANGSTROM
     91         31  H    CARTESIAN X    10.319003     12.140563  KCAL/ANGSTROM
     92         31  H    CARTESIAN Y    -2.276406      6.923744  KCAL/ANGSTROM
     93         31  H    CARTESIAN Z     3.394429    -11.188340  KCAL/ANGSTROM
     94         32  H    CARTESIAN X    10.308119     21.690526  KCAL/ANGSTROM
     95         32  H    CARTESIAN Y    -0.802303     13.892904  KCAL/ANGSTROM
     96         32  H    CARTESIAN Z     3.031392    -23.111734  KCAL/ANGSTROM
     97         33  O    CARTESIAN X    11.795371     21.733084  KCAL/ANGSTROM
     98         33  O    CARTESIAN Y    -5.000990    -10.065624  KCAL/ANGSTROM
     99         33  O    CARTESIAN Z     0.723601      9.428797  KCAL/ANGSTROM
    100         34  H    CARTESIAN X    11.700737     -0.351852  KCAL/ANGSTROM
    101         34  H    CARTESIAN Y    -4.067137      6.371801  KCAL/ANGSTROM
    102         34  H    CARTESIAN Z     0.439749     -0.101759  KCAL/ANGSTROM
    103         35  H    CARTESIAN X    11.008686    -17.982295  KCAL/ANGSTROM
    104         35  H    CARTESIAN Y    -5.440785     -4.370448  KCAL/ANGSTROM
    105         35  H    CARTESIAN Z     0.286697    -12.080441  KCAL/ANGSTROM
    106         36  O    CARTESIAN X     9.634430     -9.624803  KCAL/ANGSTROM
    107         36  O    CARTESIAN Y    -3.240869    -23.910901  KCAL/ANGSTROM
    108         36  O    CARTESIAN Z    -1.821471      2.832371  KCAL/ANGSTROM
    109         37  H    CARTESIAN X    10.301189      6.327487  KCAL/ANGSTROM
    110         37  H    CARTESIAN Y    -2.878894     10.092368  KCAL/ANGSTROM
    111         37  H    CARTESIAN Z    -1.212067     -0.239232  KCAL/ANGSTROM
    112         38  H    CARTESIAN X     9.399141      0.542726  KCAL/ANGSTROM
    113         38  H    CARTESIAN Y    -2.505621     14.987980  KCAL/ANGSTROM
    114         38  H    CARTESIAN Z    -2.415920     -7.128535  KCAL/ANGSTROM
    115         39  O    CARTESIAN X     4.464960     26.424825  KCAL/ANGSTROM
    116         39  O    CARTESIAN Y    -0.920474    -16.037645  KCAL/ANGSTROM
    117         39  O    CARTESIAN Z    -3.689287      4.097366  KCAL/ANGSTROM
    118         40  H    CARTESIAN X     4.681055     -5.919240  KCAL/ANGSTROM
    119         40  H    CARTESIAN Y    -0.206548     -1.135209  KCAL/ANGSTROM
    120         40  H    CARTESIAN Z    -3.094683     -0.592211  KCAL/ANGSTROM
    121         41  H    CARTESIAN X     3.539474    -26.236485  KCAL/ANGSTROM
    122         41  H    CARTESIAN Y    -0.637987     16.380948  KCAL/ANGSTROM
    123         41  H    CARTESIAN Z    -4.004053     -3.809480  KCAL/ANGSTROM
    124         42  O    CARTESIAN X     6.989384    -37.146040  KCAL/ANGSTROM
    125         42  O    CARTESIAN Y    -6.476696     -3.651993  KCAL/ANGSTROM
    126         42  O    CARTESIAN Z    -0.147062      1.922442  KCAL/ANGSTROM
    127         43  H    CARTESIAN X     7.938559     26.460903  KCAL/ANGSTROM
    128         43  H    CARTESIAN Y    -6.558861      3.000657  KCAL/ANGSTROM
    129         43  H    CARTESIAN Z    -0.462854     -0.995193  KCAL/ANGSTROM
    130         44  H    CARTESIAN X     7.070278     12.193202  KCAL/ANGSTROM
    131         44  H    CARTESIAN Y    -5.727255      0.377974  KCAL/ANGSTROM
    132         44  H    CARTESIAN Z     0.454501      0.311408  KCAL/ANGSTROM
    133         45  O    CARTESIAN X     7.133605     12.409507  KCAL/ANGSTROM
    134         45  O    CARTESIAN Y    -0.281391     17.572848  KCAL/ANGSTROM
    135         45  O    CARTESIAN Z     3.904278     -6.858061  KCAL/ANGSTROM
    136         46  H    CARTESIAN X     8.024800      2.843527  KCAL/ANGSTROM
    137         46  H    CARTESIAN Y    -0.641825     -0.937029  KCAL/ANGSTROM
    138         46  H    CARTESIAN Z     3.850036      0.030722  KCAL/ANGSTROM
    139         47  H    CARTESIAN X     6.573515    -12.826216  KCAL/ANGSTROM
    140         47  H    CARTESIAN Y    -1.028553    -13.538843  KCAL/ANGSTROM
    141         47  H    CARTESIAN Z     4.271607      9.195901  KCAL/ANGSTROM
    142         48  O    CARTESIAN X     4.591155     -3.340159  KCAL/ANGSTROM
    143         48  O    CARTESIAN Y     1.337299    -23.521873  KCAL/ANGSTROM
    144         48  O    CARTESIAN Z     4.692085     17.867282  KCAL/ANGSTROM
    145         49  H    CARTESIAN X     4.736540      4.521982  KCAL/ANGSTROM
    146         49  H    CARTESIAN Y     2.171044     18.679087  KCAL/ANGSTROM
    147         49  H    CARTESIAN Z     4.158536    -15.023795  KCAL/ANGSTROM
    148         50  H    CARTESIAN X     5.327631     -0.573169  KCAL/ANGSTROM
    149         50  H    CARTESIAN Y     0.786437      2.237567  KCAL/ANGSTROM
    150         50  H    CARTESIAN Z     4.425127     -3.495550  KCAL/ANGSTROM
    151         51  O    CARTESIAN X     6.222893    -22.679710  KCAL/ANGSTROM
    152         51  O    CARTESIAN Y    -2.967507    -26.960588  KCAL/ANGSTROM
    153         51  O    CARTESIAN Z    -3.542782      1.911604  KCAL/ANGSTROM
    154         52  H    CARTESIAN X     7.074367     22.727919  KCAL/ANGSTROM
    155         52  H    CARTESIAN Y    -2.458486     19.799773  KCAL/ANGSTROM
    156         52  H    CARTESIAN Z    -3.675296     -2.537461  KCAL/ANGSTROM
    157         53  H    CARTESIAN X     5.560335      5.275447  KCAL/ANGSTROM
    158         53  H    CARTESIAN Y    -2.281206      6.134921  KCAL/ANGSTROM
    159         53  H    CARTESIAN Z    -3.483455      3.108828  KCAL/ANGSTROM
    160         54  O    CARTESIAN X     4.692920      6.932034  KCAL/ANGSTROM
    161         54  O    CARTESIAN Y     1.954554    -28.282140  KCAL/ANGSTROM
    162         54  O    CARTESIAN Z    -3.054065    -33.628224  KCAL/ANGSTROM
    163         55  H    CARTESIAN X     5.251226     -3.986041  KCAL/ANGSTROM
    164         55  H    CARTESIAN Y     2.632639      8.416582  KCAL/ANGSTROM
    165         55  H    CARTESIAN Z    -3.447975      8.388903  KCAL/ANGSTROM
    166         56  H    CARTESIAN X     4.275230     -0.884486  KCAL/ANGSTROM
    167         56  H    CARTESIAN Y     2.488097     18.542005  KCAL/ANGSTROM
    168         56  H    CARTESIAN Z    -2.297202     24.170746  KCAL/ANGSTROM
    169         57  O    CARTESIAN X     1.905779    -25.579865  KCAL/ANGSTROM
    170         57  O    CARTESIAN Y     0.425143    -14.256938  KCAL/ANGSTROM
    171         57  O    CARTESIAN Z     3.910158      1.845390  KCAL/ANGSTROM
    172         58  H    CARTESIAN X     2.519263     11.302252  KCAL/ANGSTROM
    173         58  H    CARTESIAN Y     0.383072      9.862136  KCAL/ANGSTROM
    174         58  H    CARTESIAN Z     3.153241     -1.656465  KCAL/ANGSTROM
    175         59  H    CARTESIAN X     2.451710      9.113663  KCAL/ANGSTROM
    176         59  H    CARTESIAN Y     0.914007     12.253546  KCAL/ANGSTROM
    177         59  H    CARTESIAN Z     4.576906      7.666515  KCAL/ANGSTROM
    178         60  O    CARTESIAN X    11.796061    -13.980958  KCAL/ANGSTROM
    179         60  O    CARTESIAN Y    -3.840779    -19.247129  KCAL/ANGSTROM
    180         60  O    CARTESIAN Z     3.156649     19.049772  KCAL/ANGSTROM
    181         61  H    CARTESIAN X    12.582787     13.068558  KCAL/ANGSTROM
    182         61  H    CARTESIAN Y    -3.260296     16.402804  KCAL/ANGSTROM
    183         61  H    CARTESIAN Z     3.026744     -8.159110  KCAL/ANGSTROM
    184         62  H    CARTESIAN X    11.759166      0.949423  KCAL/ANGSTROM
    185         62  H    CARTESIAN Y    -4.374928      4.711098  KCAL/ANGSTROM
    186         62  H    CARTESIAN Z     2.336015     -7.083192  KCAL/ANGSTROM
    187         63  O    CARTESIAN X     3.967082    -20.157539  KCAL/ANGSTROM
    188         63  O    CARTESIAN Y    -5.522523    -12.860247  KCAL/ANGSTROM
    189         63  O    CARTESIAN Z     5.008432     -9.666241  KCAL/ANGSTROM
    190         64  H    CARTESIAN X     3.899358      5.837598  KCAL/ANGSTROM
    191         64  H    CARTESIAN Y    -4.809396      2.323001  KCAL/ANGSTROM
    192         64  H    CARTESIAN Z     4.360032     -1.924024  KCAL/ANGSTROM
    193         65  H    CARTESIAN X     4.632799     16.366153  KCAL/ANGSTROM
    194         65  H    CARTESIAN Y    -5.180962      7.748390  KCAL/ANGSTROM
    195         65  H    CARTESIAN Z     5.659156     12.330532  KCAL/ANGSTROM
    196         66  O    CARTESIAN X     8.288862     14.851579  KCAL/ANGSTROM
    197         66  O    CARTESIAN Y    -6.703784    -11.178030  KCAL/ANGSTROM
    198         66  O    CARTESIAN Z     6.004531    -10.176936  KCAL/ANGSTROM
    199         67  H    CARTESIAN X     7.818035     -6.640984  KCAL/ANGSTROM
    200         67  H    CARTESIAN Y    -6.010857      6.655676  KCAL/ANGSTROM
    201         67  H    CARTESIAN Z     5.521162      1.983969  KCAL/ANGSTROM
    202         68  H    CARTESIAN X     7.864262     -8.259205  KCAL/ANGSTROM
    203         68  H    CARTESIAN Y    -6.706094      4.831305  KCAL/ANGSTROM
    204         68  H    CARTESIAN Z     6.883117      8.658599  KCAL/ANGSTROM
    205         69  H    CARTESIAN X     2.775324     10.398243  KCAL/ANGSTROM
    206         69  H    CARTESIAN Y     1.272607     -4.053185  KCAL/ANGSTROM
    207         69  H    CARTESIAN Z     0.397186      1.165976  KCAL/ANGSTROM
    208         70  H    CARTESIAN X     6.839778    -17.186907  KCAL/ANGSTROM
    209         70  H    CARTESIAN Y     0.644462     -2.643273  KCAL/ANGSTROM
    210         70  H    CARTESIAN Z     0.406503     -3.167795  KCAL/ANGSTROM




   ATOM   CHEMICAL          X               Y               Z
  NUMBER   SYMBOL      (ANGSTROMS)     (ANGSTROMS)     (ANGSTROMS)
 
     1       C          3.53852600  *   0.60903900  *   0.80375800  *
     2       O          3.29703700  *  -0.21642100  *   1.64945400  *
     3       N          4.78894900  *   0.74053400  *   0.26665000  *
     4       H          4.94884800  *   1.47695300  *  -0.42571300  *
     5       C          6.00077800  *   0.02338100  *   0.72025000  *
     6       H          6.01597900  *  -0.10689300  *   1.83303800  *
     7       C          6.06679800  *  -1.37165800  *   0.05125200  *
     8       H          5.04543900  *  -1.66202800  *  -0.24903800  *
     9       H          6.61153700  *  -1.35570400  *  -0.92006900  *
    10       C          6.62336900  *  -2.43632700  *   0.95219900  *
    11       C          5.80291900  *  -3.28086400  *   1.70052900  *
    12       H          4.71461800  *  -3.09505800  *   1.68143100  *
    13       C          6.32846600  *  -4.32684000  *   2.40156600  *
    14       H          5.66318200  *  -5.00789300  *   2.95817100  *
    15       C          7.69735100  *  -4.55283200  *   2.39699800  *
    16       H          8.13081400  *  -5.39153000  *   2.96053500  *
    17       C          8.02402500  *  -2.65863100  *   0.95945100  *
    18       H          8.68358000  *  -2.01379300  *   0.37500200  *
    19       C          8.52638400  *  -3.72898600  *   1.69924700  *
    20       H          9.62265200  *  -3.87086600  *   1.69996500  *
    21       O          6.56197000  *   4.12373500  *  -1.97010000  *
    22       H          5.66130500  *   4.03716000  *  -1.52855300  *
    23       H          7.03425500  *   3.35969600  *  -1.59510200  *
    24       O          3.15342000  *  -2.97599300  *   3.97616400  *
    25       H          2.19168100  *  -2.99895700  *   4.28221400  *
    26       H          3.20623000  *  -2.16655400  *   3.44351700  *
    27       O         11.36116400  *  -2.42678100  *   0.07611400  *
    28       H         12.22068200  *  -2.12886300  *  -0.29610900  *
    29       H         11.11935700  *  -1.61914000  *   0.65212400  *
    30       O          9.79219200  *  -1.47889400  *   3.58777300  *
    31       H         10.31900300  *  -2.27640600  *   3.39442900  *
    32       H         10.30811900  *  -0.80230300  *   3.03139200  *
    33       O         11.79537100  *  -5.00099000  *   0.72360100  *
    34       H         11.70073700  *  -4.06713700  *   0.43974900  *
    35       H         11.00868600  *  -5.44078500  *   0.28669700  *
    36       O          9.63443000  *  -3.24086900  *  -1.82147100  *
    37       H         10.30118900  *  -2.87889400  *  -1.21206700  *
    38       H          9.39914100  *  -2.50562100  *  -2.41592000  *
    39       O          4.46496000  *  -0.92047400  *  -3.68928700  *
    40       H          4.68105500  *  -0.20654800  *  -3.09468300  *
    41       H          3.53947400  *  -0.63798700  *  -4.00405300  *
    42       O          6.98938400  *  -6.47669600  *  -0.14706200  *
    43       H          7.93855900  *  -6.55886100  *  -0.46285400  *
    44       H          7.07027800  *  -5.72725500  *   0.45450100  *
    45       O          7.13360500  *  -0.28139100  *   3.90427800  *
    46       H          8.02480000  *  -0.64182500  *   3.85003600  *
    47       H          6.57351500  *  -1.02855300  *   4.27160700  *
    48       O          4.59115500  *   1.33729900  *   4.69208500  *
    49       H          4.73654000  *   2.17104400  *   4.15853600  *
    50       H          5.32763100  *   0.78643700  *   4.42512700  *
    51       O          6.22289300  *  -2.96750700  *  -3.54278200  *
    52       H          7.07436700  *  -2.45848600  *  -3.67529600  *
    53       H          5.56033500  *  -2.28120600  *  -3.48345500  *
    54       O          4.69292000  *   1.95455400  *  -3.05406500  *
    55       H          5.25122600  *   2.63263900  *  -3.44797500  *
    56       H          4.27523000  *   2.48809700  *  -2.29720200  *
    57       O          1.90577900  *   0.42514300  *   3.91015800  *
    58       H          2.51926300  *   0.38307200  *   3.15324100  *
    59       H          2.45171000  *   0.91400700  *   4.57690600  *
    60       O         11.79606100  *  -3.84077900  *   3.15664900  *
    61       H         12.58278700  *  -3.26029600  *   3.02674400  *
    62       H         11.75916600  *  -4.37492800  *   2.33601500  *
    63       O          3.96708200  *  -5.52252300  *   5.00843200  *
    64       H          3.89935800  *  -4.80939600  *   4.36003200  *
    65       H          4.63279900  *  -5.18096200  *   5.65915600  *
    66       O          8.28886200  *  -6.70378400  *   6.00453100  *
    67       H          7.81803500  *  -6.01085700  *   5.52116200  *
    68       H          7.86426200  *  -6.70609400  *   6.88311700  *
    69       H          2.77532400  *   1.27260700  *   0.39718600  *
    70       H          6.83977800  *   0.64446200  *   0.40650300  *

                             CARTESIAN COORDINATES

   1    C        3.538526000     0.609039000     0.803758000
   2    O        3.297037000    -0.216421000     1.649454000
   3    N        4.788949000     0.740534000     0.266650000
   4    H        4.948848000     1.476953000    -0.425713000
   5    C        6.000778000     0.023381000     0.720250000
   6    H        6.015979000    -0.106893000     1.833038000
   7    C        6.066798000    -1.371658000     0.051252000
   8    H        5.045439000    -1.662028000    -0.249038000
   9    H        6.611537000    -1.355704000    -0.920069000
  10    C        6.623369000    -2.436327000     0.952199000
  11    C        5.802919000    -3.280864000     1.700529000
  12    H        4.714618000    -3.095058000     1.681431000
  13    C        6.328466000    -4.326840000     2.401566000
  14    H        5.663182000    -5.007893000     2.958171000
  15    C        7.697351000    -4.552832000     2.396998000
  16    H        8.130814000    -5.391530000     2.960535000
  17    C        8.024025000    -2.658631000     0.959451000
  18    H        8.683580000    -2.013793000     0.375002000
  19    C        8.526384000    -3.728986000     1.699247000
  20    H        9.622652000    -3.870866000     1.699965000
  21    O        6.561970000     4.123735000    -1.970100000
  22    H        5.661305000     4.037160000    -1.528553000
  23    H        7.034255000     3.359696000    -1.595102000
  24    O        3.153420000    -2.975993000     3.976164000
  25    H        2.191681000    -2.998957000     4.282214000
  26    H        3.206230000    -2.166554000     3.443517000
  27    O       11.361164000    -2.426781000     0.076114000
  28    H       12.220682000    -2.128863000    -0.296109000
  29    H       11.119357000    -1.619140000     0.652124000
  30    O        9.792192000    -1.478894000     3.587773000
  31    H       10.319003000    -2.276406000     3.394429000
  32    H       10.308119000    -0.802303000     3.031392000
  33    O       11.795371000    -5.000990000     0.723601000
  34    H       11.700737000    -4.067137000     0.439749000
  35    H       11.008686000    -5.440785000     0.286697000
  36    O        9.634430000    -3.240869000    -1.821471000
  37    H       10.301189000    -2.878894000    -1.212067000
  38    H        9.399141000    -2.505621000    -2.415920000
  39    O        4.464960000    -0.920474000    -3.689287000
  40    H        4.681055000    -0.206548000    -3.094683000
  41    H        3.539474000    -0.637987000    -4.004053000
  42    O        6.989384000    -6.476696000    -0.147062000
  43    H        7.938559000    -6.558861000    -0.462854000
  44    H        7.070278000    -5.727255000     0.454501000
  45    O        7.133605000    -0.281391000     3.904278000
  46    H        8.024800000    -0.641825000     3.850036000
  47    H        6.573515000    -1.028553000     4.271607000
  48    O        4.591155000     1.337299000     4.692085000
  49    H        4.736540000     2.171044000     4.158536000
  50    H        5.327631000     0.786437000     4.425127000
  51    O        6.222893000    -2.967507000    -3.542782000
  52    H        7.074367000    -2.458486000    -3.675296000
  53    H        5.560335000    -2.281206000    -3.483455000
  54    O        4.692920000     1.954554000    -3.054065000
  55    H        5.251226000     2.632639000    -3.447975000
  56    H        4.275230000     2.488097000    -2.297202000
  57    O        1.905779000     0.425143000     3.910158000
  58    H        2.519263000     0.383072000     3.153241000
  59    H        2.451710000     0.914007000     4.576906000
  60    O       11.796061000    -3.840779000     3.156649000
  61    H       12.582787000    -3.260296000     3.026744000
  62    H       11.759166000    -4.374928000     2.336015000
  63    O        3.967082000    -5.522523000     5.008432000
  64    H        3.899358000    -4.809396000     4.360032000
  65    H        4.632799000    -5.180962000     5.659156000
  66    O        8.288862000    -6.703784000     6.004531000
  67    H        7.818035000    -6.010857000     5.521162000
  68    H        7.864262000    -6.706094000     6.883117000
  69    H        2.775324000     1.272607000     0.397186000
  70    H        6.839778000     0.644462000     0.406503000


           Empirical Formula: C9 H43 N O17  =    70 atoms



      MOLECULAR POINT GROUP   :   C1  


                EIGENVECTORS  


   Root No.       1         2         3         4         5         6         7         8

                 1 A       2 A       3 A       4 A       5 A       6 A       7 A       8 A   

               -35.971   -30.111   -29.477   -29.167   -28.959   -28.710   -28.634   -28.540
  
  S   C    1    0.3096   -0.0265    0.3775    0.0347    0.0013    0.0019    0.0007    0.0045
  Px  C    1    0.1880   -0.0042   -0.1121   -0.0189    0.0016   -0.0049    0.0007   -0.0019
  Py  C    1    0.0152   -0.0012   -0.2188   -0.0237    0.0023   -0.0045    0.0010    0.0006
  Pz  C    1   -0.0727    0.0006    0.2443    0.0284   -0.0024    0.0048   -0.0010    0.0004
  S   O    2    0.0623   -0.0156    0.7405    0.0828   -0.0042    0.0128   -0.0016    0.0045
  Px  O    2    0.0490   -0.0016    0.0482    0.0032   -0.0002   -0.0000   -0.0001   -0.0003
  Py  O    2    0.0484   -0.0087    0.2221    0.0237   -0.0004    0.0029   -0.0002    0.0019
  Pz  O    2   -0.0601    0.0074   -0.2113   -0.0217    0.0006   -0.0028    0.0002   -0.0014
  S   N    3    0.8185   -0.0254   -0.1337   -0.0307    0.0049   -0.0105    0.0019   -0.0022
  Px  N    3   -0.0366    0.0182   -0.0874   -0.0079   -0.0028    0.0010   -0.0014   -0.0050
  Py  N    3    0.0107   -0.0126   -0.0464    0.0011    0.0028   -0.0017    0.0012    0.0053
  Pz  N    3    0.0240    0.0005    0.0668    0.0002   -0.0007   -0.0019   -0.0003   -0.0027
  S   H    4    0.2551   -0.0094   -0.0784    0.0014    0.0022   -0.0003    0.0009    0.0058
  S   C    5    0.2355    0.0597   -0.0711   -0.0161   -0.0098    0.0024   -0.0045   -0.0146
  Px  C    5   -0.1342    0.0132    0.0077    0.0055   -0.0016    0.0023   -0.0008   -0.0001
  Py  C    5    0.0782   -0.0361   -0.0252   -0.0033    0.0060   -0.0045    0.0023    0.0031
  Pz  C    5   -0.0520   -0.0025    0.0296    0.0034    0.0004   -0.0012    0.0003    0.0021
  S   H    6    0.0736    0.0325   -0.0112   -0.0046   -0.0049    0.0010   -0.0022   -0.0058
  S   C    7    0.0727    0.1462   -0.0287   -0.0069   -0.0227    0.0132   -0.0089   -0.0188
  Px  C    7   -0.0224    0.0256   -0.0011    0.0007   -0.0017    0.0001   -0.0011   -0.0004
  Py  C    7    0.0460   -0.0444   -0.0169   -0.0034    0.0061   -0.0007    0.0015   -0.0010
  Pz  C    7    0.0098    0.0414   -0.0001   -0.0013   -0.0065   -0.0024   -0.0019   -0.0006
  S   H    8    0.0430    0.0590   -0.0073   -0.0024   -0.0100    0.0079   -0.0036   -0.0089
  S   H    9    0.0257    0.0581   -0.0136   -0.0020   -0.0076    0.0100   -0.0036   -0.0100
  S   C   10    0.0161    0.3689    0.0002   -0.0012   -0.0478    0.0051   -0.0139   -0.0113
  Px  C   10   -0.0065    0.0388    0.0023    0.0009    0.0040   -0.0014   -0.0006    0.0014
  Py  C   10    0.0110   -0.0838   -0.0095   -0.0021    0.0100    0.0033    0.0007   -0.0041
  Pz  C   10   -0.0036    0.0557    0.0058    0.0010   -0.0076   -0.0032   -0.0003    0.0030
  S   C   11    0.0061    0.3571    0.0106    0.0012   -0.0545   -0.0010   -0.0090   -0.0025
  Px  C   11   -0.0001    0.1339    0.0039    0.0007   -0.0154   -0.0012   -0.0029    0.0002
  Py  C   11    0.0044   -0.0216   -0.0039   -0.0011    0.0031    0.0026   -0.0020   -0.0039
  Pz  C   11   -0.0025   -0.0052    0.0021    0.0006    0.0004   -0.0019    0.0020    0.0025
  S   H   12    0.0046    0.1021    0.0033    0.0001   -0.0176    0.0004   -0.0029   -0.0017
  S   C   13    0.0007    0.3581    0.0151    0.0027   -0.0504   -0.0058   -0.0012    0.0051
  Px  C   13   -0.0002    0.0839    0.0035    0.0008   -0.0055   -0.0019    0.0009    0.0022
  Py  C   13    0.0009    0.0803    0.0023    0.0002   -0.0114    0.0000   -0.0040   -0.0014
  Pz  C   13   -0.0005   -0.0739   -0.0024   -0.0004    0.0098    0.0005    0.0034   -0.0002
  S   H   14    0.0001    0.1008    0.0047    0.0009   -0.0159   -0.0020    0.0021    0.0020
  S   C   15    0.0001    0.3599    0.0156    0.0031   -0.0309   -0.0073    0.0033    0.0074
  Px  C   15   -0.0002   -0.0513   -0.0021   -0.0003    0.0182    0.0006    0.0010   -0.0006
  Py  C   15    0.0003    0.1019    0.0036    0.0006   -0.0076   -0.0010   -0.0045   -0.0002
  Pz  C   15   -0.0001   -0.0748   -0.0027   -0.0005    0.0044    0.0011    0.0042   -0.0012
  S   H   16   -0.0000    0.1030    0.0048    0.0010   -0.0067   -0.0027    0.0083    0.0031
  S   C   17    0.0037    0.3373    0.0066    0.0011   -0.0151    0.0001   -0.0102   -0.0042
  Px  C   17   -0.0028   -0.0827    0.0002    0.0004    0.0231   -0.0013    0.0033    0.0027
  Py  C   17    0.0024   -0.0759   -0.0054   -0.0011    0.0035    0.0026    0.0003   -0.0030
  Pz  C   17   -0.0008    0.0641    0.0037    0.0007   -0.0055   -0.0020   -0.0005    0.0018
  S   H   18    0.0025    0.0986    0.0003    0.0001    0.0074    0.0013   -0.0036   -0.0030
  S   C   19    0.0002    0.3505    0.0135    0.0028   -0.0005   -0.0056   -0.0042    0.0040
  Px  C   19   -0.0004   -0.1319   -0.0046   -0.0008    0.0289    0.0014    0.0021   -0.0009
  Py  C   19    0.0004    0.0130   -0.0009   -0.0002    0.0005    0.0012   -0.0031   -0.0025
  Pz  C   19   -0.0001    0.0011    0.0009    0.0002   -0.0032   -0.0009    0.0023    0.0013
  S   H   20    0.0000    0.1010    0.0042    0.0010    0.0311   -0.0022   -0.0006    0.0018
  S   O   21    0.0055   -0.0009   -0.0624    0.6524   -0.0045   -0.3253   -0.0062   -0.4596
  Px  O   21   -0.0012    0.0002    0.0060   -0.0574    0.0003    0.0203    0.0004    0.0239
  Py  O   21   -0.0020    0.0002    0.0136   -0.1361    0.0009    0.0630    0.0012    0.0865
  Pz  O   21    0.0016   -0.0002   -0.0112    0.1141   -0.0008   -0.0588   -0.0011   -0.0842
  S   H   22    0.0048   -0.0005   -0.0238    0.2338   -0.0015   -0.1041   -0.0019   -0.1401
  S   H   23    0.0043   -0.0003   -0.0252    0.2526   -0.0017   -0.1222   -0.0023   -0.1709
  S   O   24    0.0001    0.0175    0.0131    0.0023   -0.0086    0.0009    0.0051   -0.0012
  Px  O   24    0.0000   -0.0012   -0.0022   -0.0004    0.0011   -0.0002   -0.0007    0.0002
  Py  O   24    0.0000    0.0030    0.0030    0.0005   -0.0014    0.0002    0.0003   -0.0003
  Pz  O   24   -0.0000   -0.0028   -0.0012   -0.0002    0.0008   -0.0001   -0.0001    0.0001
  S   H   25    0.0000    0.0056    0.0045    0.0008   -0.0028    0.0003    0.0018   -0.0004
  S   H   26    0.0001    0.0097    0.0071    0.0011   -0.0038    0.0004    0.0017   -0.0005
  S   O   27    0.0001    0.0356    0.0018    0.0018    0.3562    0.0035   -0.0008   -0.0103
  Px  O   27   -0.0000    0.0012    0.0002    0.0002    0.0495   -0.0002    0.0001   -0.0005
  Py  O   27    0.0000    0.0042    0.0001    0.0002    0.0375    0.0010   -0.0004   -0.0023
  Pz  O   27    0.0000    0.0018    0.0001    0.0000    0.0065   -0.0009    0.0001    0.0009
  S   H   28    0.0000    0.0128    0.0007    0.0007    0.1361    0.0012   -0.0002   -0.0038
  S   H   29    0.0001    0.0154    0.0006    0.0006    0.1124    0.0011   -0.0004   -0.0034
  S   O   30    0.0002    0.0363    0.0019    0.0007    0.1157   -0.0039   -0.0007    0.0011
  Px  O   30   -0.0001    0.0072    0.0004    0.0002    0.0281   -0.0009    0.0000    0.0005
  Py  O   30    0.0000   -0.0048   -0.0003   -0.0001   -0.0095    0.0004   -0.0001   -0.0004
  Pz  O   30   -0.0000   -0.0076   -0.0003   -0.0001   -0.0198    0.0006    0.0001   -0.0002
  S   H   31    0.0001    0.0214    0.0010    0.0004    0.0563   -0.0018   -0.0001    0.0008
  S   H   32    0.0001    0.0139    0.0006    0.0002    0.0418   -0.0013   -0.0003    0.0003
  S   O   33    0.0000    0.0494    0.0039    0.0028    0.5966   -0.0106    0.0041    0.0102
  Px  O   33   -0.0000   -0.0111   -0.0008   -0.0005   -0.1078    0.0019   -0.0007   -0.0019
  Py  O   33    0.0000    0.0090    0.0006    0.0004    0.0938   -0.0015    0.0006    0.0013
  Pz  O   33   -0.0000   -0.0051   -0.0004   -0.0003   -0.0666    0.0009   -0.0004   -0.0007
  S   H   34    0.0000    0.0243    0.0017    0.0012    0.2536   -0.0039    0.0015    0.0034
  S   H   35    0.0000    0.0200    0.0015    0.0010    0.2034   -0.0036    0.0014    0.0035
  S   O   36    0.0002    0.0328    0.0004    0.0018    0.2136    0.0215   -0.0033   -0.0279
  Px  O   36   -0.0000    0.0039    0.0001    0.0002    0.0294    0.0015   -0.0003   -0.0024
  Py  O   36    0.0001    0.0094    0.0001    0.0005    0.0548    0.0060   -0.0009   -0.0075
  Pz  O   36    0.0000    0.0037    0.0001    0.0000    0.0097   -0.0006   -0.0001    0.0003
  S   H   37    0.0002    0.0189    0.0004    0.0008    0.1044    0.0078   -0.0014   -0.0107
  S   H   38    0.0002    0.0130    0.0000    0.0008    0.0771    0.0095   -0.0013   -0.0113
  S   O   39    0.0036    0.0055   -0.0175    0.0971    0.0031    0.7230    0.0040   -0.3642
  Px  O   39    0.0000   -0.0001    0.0016   -0.0099   -0.0001   -0.0762   -0.0005    0.0383
  Py  O   39    0.0014    0.0010   -0.0042    0.0227    0.0004    0.1545    0.0009   -0.0743
  Pz  O   39    0.0012    0.0009   -0.0022    0.0104    0.0003    0.0678    0.0004   -0.0323
  S   H   40    0.0047    0.0029   -0.0089    0.0454    0.0012    0.2926    0.0016   -0.1382
  S   H   41    0.0013    0.0017   -0.0057    0.0323    0.0009    0.2349    0.0013   -0.1170
  S   O   42    0.0001    0.1430    0.0096    0.0028   -0.0275   -0.0161   -0.0011    0.0549
  Px  O   42    0.0000    0.0297    0.0020    0.0006   -0.0052   -0.0034   -0.0002    0.0117
  Py  O   42    0.0000    0.0341    0.0020    0.0005   -0.0056   -0.0028   -0.0002    0.0091
  Pz  O   42    0.0000    0.0212    0.0012    0.0003   -0.0034   -0.0015   -0.0001    0.0046
  S   H   43    0.0000    0.0501    0.0033    0.0010   -0.0084   -0.0056   -0.0004    0.0189
  S   H   44    0.0001    0.0884    0.0051    0.0013   -0.0137   -0.0068   -0.0005    0.0219
  S   O   45    0.0029    0.0306    0.0011   -0.0007    0.0168   -0.0004   -0.0041   -0.0081
  Px  O   45   -0.0008    0.0028   -0.0002   -0.0000    0.0029   -0.0001   -0.0004   -0.0006
  Py  O   45   -0.0005   -0.0088   -0.0002    0.0002   -0.0039    0.0001    0.0010    0.0019
  Pz  O   45   -0.0013    0.0006    0.0005    0.0001    0.0010   -0.0001   -0.0002   -0.0003
  S   H   46    0.0014    0.0155    0.0003   -0.0003    0.0089   -0.0003   -0.0017   -0.0031
  S   H   47    0.0018    0.0138    0.0007   -0.0003    0.0051   -0.0001   -0.0015   -0.0028
  S   O   48    0.0020    0.0036    0.0159    0.0020    0.0009    0.0006   -0.0009   -0.0018
  Px  O   48    0.0007    0.0011    0.0007    0.0000    0.0003    0.0001   -0.0002   -0.0005
  Py  O   48   -0.0001   -0.0003    0.0001    0.0000   -0.0000    0.0000    0.0000    0.0000
  Pz  O   48   -0.0007   -0.0007   -0.0037   -0.0005   -0.0001   -0.0001    0.0002    0.0003
  S   H   49    0.0015    0.0012    0.0068    0.0008    0.0003    0.0002   -0.0003   -0.0006
  S   H   50    0.0021    0.0026    0.0068    0.0008    0.0006    0.0003   -0.0005   -0.0010
  S   O   51    0.0009    0.0073   -0.0047    0.0201    0.0082    0.2307    0.0001   -0.1478
  Px  O   51   -0.0001    0.0001    0.0001   -0.0007    0.0009   -0.0043   -0.0001    0.0016
  Py  O   51    0.0004    0.0025   -0.0015    0.0063    0.0024    0.0688    0.0000   -0.0433
  Pz  O   51    0.0001    0.0003   -0.0001   -0.0001   -0.0001   -0.0017   -0.0000    0.0012
  S   H   52    0.0005    0.0034   -0.0018    0.0070    0.0041    0.0801   -0.0000   -0.0514
  S   H   53    0.0009    0.0040   -0.0027    0.0115    0.0031    0.1172    0.0001   -0.0714
  S   O   54    0.0118   -0.0022   -0.0682    0.5335   -0.0011    0.2555    0.0061    0.6205
  Px  O   54   -0.0004   -0.0000   -0.0037    0.0334   -0.0001    0.0110    0.0003    0.0333
  Py  O   54    0.0030   -0.0008   -0.0184    0.1469   -0.0004    0.0455    0.0015    0.1698
  Pz  O   54    0.0059   -0.0004   -0.0063    0.0314   -0.0000    0.0111    0.0003    0.0317
  S   H   55    0.0049   -0.0009   -0.0284    0.2264   -0.0006    0.0925    0.0023    0.2405
  S   H   56    0.0132   -0.0012   -0.0266    0.1863   -0.0003    0.0778    0.0020    0.1973
  S   O   57    0.0016   -0.0005    0.1105    0.0155   -0.0013    0.0036   -0.0002    0.0014
  Px  O   57    0.0005   -0.0001    0.0334    0.0046   -0.0004    0.0010   -0.0001    0.0004
  Py  O   57    0.0003   -0.0001    0.0096    0.0014   -0.0001    0.0003   -0.0000    0.0001
  Pz  O   57   -0.0002    0.0001   -0.0129   -0.0016    0.0001   -0.0003    0.0000   -0.0001
  S   H   58    0.0025   -0.0006    0.0719    0.0094   -0.0007    0.0019   -0.0001    0.0007
  S   H   59    0.0007   -0.0001    0.0397    0.0056   -0.0005    0.0013   -0.0001    0.0005
  S   O   60    0.0000    0.0352    0.0029    0.0019    0.4169   -0.0112    0.0040    0.0129
  Px  O   60   -0.0000    0.0029    0.0003    0.0003    0.0630   -0.0017    0.0006    0.0020
  Py  O   60    0.0000   -0.0003   -0.0000   -0.0000   -0.0006   -0.0001   -0.0000    0.0000
  Pz  O   60   -0.0000   -0.0105   -0.0008   -0.0005   -0.1038    0.0026   -0.0009   -0.0030
  S   H   61    0.0000    0.0131    0.0011    0.0007    0.1542   -0.0041    0.0014    0.0047
  S   H   62    0.0000    0.0200    0.0015    0.0009    0.1931   -0.0048    0.0017    0.0054
  S   O   63    0.0000    0.0204    0.0022    0.0005   -0.0072   -0.0009    0.0195    0.0006
  Px  O   63    0.0000    0.0033    0.0003    0.0001   -0.0010   -0.0001    0.0034    0.0001
  Py  O   63    0.0000    0.0063    0.0007    0.0001   -0.0020   -0.0002    0.0048    0.0002
  Pz  O   63   -0.0000   -0.0025   -0.0002   -0.0000    0.0005    0.0000    0.0004   -0.0000
  S   H   64    0.0000    0.0129    0.0013    0.0003   -0.0038   -0.0004    0.0077    0.0003
  S   H   65    0.0000    0.0081    0.0008    0.0002   -0.0027   -0.0003    0.0090    0.0002
  S   O   66   -0.0000    0.0133    0.0012    0.0004   -0.0049   -0.0069    0.8595   -0.0066
  Px  O   66    0.0000   -0.0032   -0.0003   -0.0001    0.0011    0.0014   -0.1776    0.0014
  Py  O   66   -0.0000    0.0030    0.0002    0.0001   -0.0009   -0.0011    0.1394   -0.0010
  Pz  O   66    0.0000    0.0000    0.0000    0.0000   -0.0003   -0.0005    0.0724   -0.0006
  S   H   67   -0.0000    0.0078    0.0006    0.0002   -0.0021   -0.0027    0.3242   -0.0024
  S   H   68   -0.0000    0.0047    0.0004    0.0001   -0.0018   -0.0025    0.3136   -0.0024
  S   H   69    0.0883   -0.0099    0.1008    0.0110    0.0009    0.0009    0.0005    0.0031
  S   H   70    0.0832    0.0236   -0.0381   -0.0051   -0.0035    0.0008   -0.0018   -0.0064


   Root No.       9        10        11        12        13        14        15        16

                 9 A      10 A      11 A      12 A      13 A      14 A      15 A      16 A   

               -28.461   -28.366   -28.325   -28.265   -28.013   -27.849   -27.803   -27.780
  
  S   C    1    0.0096   -0.0059   -0.0073   -0.0155    0.0106   -0.0114    0.0203   -0.0482
  Px  C    1    0.0057    0.0009   -0.0002    0.0040    0.0009   -0.0010   -0.0035    0.0074
  Py  C    1    0.0072    0.0028    0.0015    0.0091   -0.0011    0.0014   -0.0135    0.0301
  Pz  C    1   -0.0080   -0.0016   -0.0000   -0.0077   -0.0007    0.0005    0.0087   -0.0190
  S   O    2   -0.0106   -0.0079   -0.0054   -0.0212    0.0064   -0.0067    0.0320   -0.0722
  Px  O    2    0.0001   -0.0011   -0.0012   -0.0045    0.0018   -0.0025    0.0077   -0.0182
  Py  O    2    0.0000   -0.0025   -0.0022   -0.0110    0.0023   -0.0026    0.0074   -0.0172
  Pz  O    2   -0.0006    0.0048    0.0048    0.0170   -0.0062    0.0074   -0.0217    0.0506
  S   N    3    0.0176   -0.0001   -0.0029    0.0066    0.0054   -0.0044   -0.0059    0.0126
  Px  N    3   -0.0137    0.0026    0.0050    0.0043   -0.0083    0.0090   -0.0067    0.0179
  Py  N    3    0.0105    0.0005   -0.0011    0.0025    0.0035   -0.0038   -0.0031    0.0055
  Pz  N    3   -0.0024    0.0004    0.0006   -0.0029   -0.0006    0.0000    0.0036   -0.0082
  S   H    4    0.0073    0.0001   -0.0009    0.0038    0.0021   -0.0017   -0.0044    0.0092
  S   C    5   -0.0414    0.0036    0.0103    0.0014   -0.0192    0.0197   -0.0058    0.0187
  Px  C    5   -0.0076    0.0002    0.0018   -0.0014   -0.0025    0.0026   -0.0000    0.0005
  Py  C    5    0.0194    0.0028    0.0001    0.0024    0.0053   -0.0062   -0.0018    0.0014
  Pz  C    5    0.0018    0.0043    0.0030   -0.0013   -0.0012   -0.0024    0.0005   -0.0047
  S   H    6   -0.0222    0.0098    0.0123   -0.0007   -0.0140    0.0090   -0.0030    0.0054
  S   C    7   -0.0758   -0.0114    0.0007   -0.0035   -0.0225    0.0301   -0.0002    0.0157
  Px  C    7   -0.0091   -0.0029    0.0003   -0.0025   -0.0007    0.0021   -0.0005    0.0014
  Py  C    7    0.0105    0.0054    0.0059    0.0019    0.0001    0.0003   -0.0010    0.0026
  Pz  C    7   -0.0163   -0.0007   -0.0014   -0.0010   -0.0052    0.0006   -0.0025    0.0010
  S   H    8   -0.0302   -0.0047   -0.0008   -0.0005   -0.0093    0.0129    0.0012    0.0055
  S   H    9   -0.0302   -0.0066    0.0019   -0.0020   -0.0077    0.0175    0.0031    0.0076
  S   C   10   -0.1102   -0.0250   -0.0240   -0.0126   -0.0222    0.0162   -0.0040    0.0087
  Px  C   10   -0.0037   -0.0040    0.0000   -0.0077    0.0062   -0.0036   -0.0011    0.0007
  Py  C   10    0.0009    0.0044    0.0130    0.0016   -0.0020    0.0078    0.0007    0.0037
  Pz  C   10   -0.0036    0.0009   -0.0077   -0.0003   -0.0002   -0.0066   -0.0007   -0.0033
  S   C   11   -0.0732   -0.0177   -0.0348    0.0035   -0.0190    0.0011   -0.0026   -0.0034
  Px  C   11   -0.0213   -0.0069   -0.0124   -0.0108   -0.0032   -0.0015   -0.0016    0.0008
  Py  C   11   -0.0177   -0.0001    0.0053   -0.0013   -0.0033    0.0065   -0.0003    0.0041
  Pz  C   11    0.0097    0.0028   -0.0013    0.0035    0.0020   -0.0049    0.0005   -0.0039
  S   H   12   -0.0259   -0.0044   -0.0090    0.0130   -0.0073    0.0019   -0.0002   -0.0020
  S   C   13   -0.0266   -0.0128   -0.0378    0.0009   -0.0091   -0.0113   -0.0015   -0.0101
  Px  C   13    0.0022   -0.0018   -0.0079   -0.0094    0.0024   -0.0041   -0.0010    0.0018
  Py  C   13   -0.0292   -0.0050   -0.0090   -0.0020   -0.0045    0.0005   -0.0011    0.0007
  Pz  C   13    0.0059    0.0038    0.0060    0.0030    0.0027   -0.0002    0.0012   -0.0014
  S   H   14   -0.0031   -0.0027   -0.0106    0.0083   -0.0026   -0.0045    0.0011   -0.0083
  S   C   15   -0.0080   -0.0077   -0.0367   -0.0136    0.0036   -0.0159   -0.0014   -0.0032
  Px  C   15    0.0020    0.0043    0.0050   -0.0034    0.0070    0.0001    0.0008    0.0039
  Py  C   15   -0.0270   -0.0047   -0.0111   -0.0058    0.0012   -0.0031   -0.0005    0.0009
  Pz  C   15   -0.0016    0.0027    0.0047    0.0039   -0.0004    0.0015    0.0008   -0.0011
  S   H   16    0.0067   -0.0002   -0.0106   -0.0037    0.0026   -0.0056   -0.0002   -0.0013
  S   C   17   -0.0789   -0.0257   -0.0143   -0.0213    0.0039    0.0004   -0.0043    0.0072
  Px  C   17    0.0251    0.0039    0.0111    0.0014    0.0126   -0.0058    0.0011   -0.0009
  Py  C   17   -0.0014    0.0007    0.0120    0.0038   -0.0028    0.0059    0.0001    0.0008
  Pz  C   17   -0.0067    0.0042   -0.0099   -0.0036    0.0025   -0.0060    0.0016    0.0004
  S   H   18   -0.0292   -0.0178    0.0101   -0.0077    0.0066    0.0022   -0.0034    0.0029
  S   C   19   -0.0375   -0.0087   -0.0304   -0.0217    0.0159   -0.0148   -0.0005    0.0046
  Px  C   19    0.0143    0.0093    0.0115    0.0048    0.0066    0.0016    0.0024    0.0015
  Py  C   19   -0.0238   -0.0040    0.0041   -0.0028    0.0035    0.0012    0.0001    0.0025
  Pz  C   19    0.0042    0.0058   -0.0043    0.0005    0.0027   -0.0030    0.0013   -0.0007
  S   H   20   -0.0086    0.0051   -0.0120   -0.0074    0.0122   -0.0061    0.0015    0.0032
  S   O   21    0.0236    0.0060   -0.0055    0.0002   -0.0000   -0.0063   -0.0039   -0.0022
  Px  O   21   -0.0012   -0.0002    0.0002    0.0000   -0.0000    0.0001   -0.0000    0.0001
  Py  O   21   -0.0044   -0.0011    0.0010   -0.0000    0.0000    0.0010    0.0006    0.0004
  Pz  O   21    0.0044    0.0011   -0.0010    0.0001   -0.0000   -0.0012   -0.0008   -0.0003
  S   H   22    0.0071    0.0017   -0.0016    0.0000    0.0000   -0.0015   -0.0009   -0.0006
  S   H   23    0.0087    0.0022   -0.0020    0.0001   -0.0000   -0.0022   -0.0014   -0.0007
  S   O   24   -0.0510    0.0517    0.0561    0.8247    0.0481   -0.0143    0.0360   -0.0606
  Px  O   24    0.0085   -0.0089   -0.0099   -0.1446   -0.0087    0.0023   -0.0059    0.0090
  Py  O   24   -0.0093    0.0096    0.0105    0.1445    0.0077   -0.0012    0.0033   -0.0022
  Pz  O   24    0.0038   -0.0033   -0.0036   -0.0510   -0.0025    0.0003   -0.0010    0.0005
  S   H   25   -0.0170    0.0173    0.0188    0.2765    0.0161   -0.0048    0.0120   -0.0204
  S   H   26   -0.0205    0.0203    0.0219    0.3114    0.0166   -0.0040    0.0102   -0.0148
  S   O   27   -0.0220   -0.2710    0.2778    0.0003    0.0054   -0.2972    0.1933    0.1582
  Px  O   27   -0.0004   -0.0255    0.0235    0.0011   -0.0089   -0.0511    0.0385    0.0280
  Py  O   27   -0.0071   -0.0519    0.0624   -0.0018    0.0188   -0.0622    0.0366    0.0349
  Pz  O   27    0.0009    0.0133   -0.0131    0.0001   -0.0037   -0.0158    0.0158    0.0102
  S   H   28   -0.0077   -0.1004    0.1020    0.0004    0.0001   -0.1100    0.0720    0.0584
  S   H   29   -0.0091   -0.0829    0.0911   -0.0012    0.0125   -0.0969    0.0623    0.0528
  S   O   30   -0.0748    0.3216    0.1658   -0.0669    0.6445   -0.2063    0.1928    0.1780
  Px  O   30   -0.0118    0.0562    0.0202   -0.0125    0.1535   -0.0459    0.0410    0.0453
  Py  O   30    0.0014   -0.0097    0.0033    0.0023   -0.0395    0.0082   -0.0063   -0.0111
  Pz  O   30    0.0114   -0.0471   -0.0235    0.0102   -0.1028    0.0329   -0.0301   -0.0292
  S   H   31   -0.0279    0.1242    0.0531   -0.0255    0.2561   -0.0737    0.0668    0.0676
  S   H   32   -0.0262    0.1092    0.0591   -0.0230    0.2168   -0.0708    0.0657    0.0601
  S   O   33    0.0499    0.0408   -0.1853    0.0316   -0.3449   -0.1176    0.2034    0.0462
  Px  O   33   -0.0096   -0.0061    0.0327   -0.0057    0.0645    0.0229   -0.0390   -0.0090
  Py  O   33    0.0054    0.0049   -0.0225    0.0038   -0.0355   -0.0115    0.0187    0.0045
  Pz  O   33   -0.0063    0.0093    0.0111   -0.0044    0.0592    0.0331   -0.0461   -0.0143
  S   H   34    0.0172    0.0039   -0.0571    0.0115   -0.1209   -0.0500    0.0752    0.0206
  S   H   35    0.0184    0.0112   -0.0607    0.0107   -0.1201   -0.0425    0.0722    0.0167
  S   O   36   -0.0429   -0.4297    0.4576   -0.0094    0.1564    0.2534   -0.2981   -0.1722
  Px  O   36   -0.0044   -0.0460    0.0480   -0.0008    0.0136    0.0182   -0.0268   -0.0147
  Py  O   36   -0.0117   -0.1100    0.1170   -0.0025    0.0401    0.0643   -0.0737   -0.0426
  Pz  O   36   -0.0007   -0.0051    0.0042   -0.0001   -0.0014   -0.0066    0.0017    0.0020
  S   H   37   -0.0174   -0.1728    0.1815   -0.0035    0.0546    0.0770   -0.0990   -0.0553
  S   H   38   -0.0162   -0.1581    0.1686   -0.0036    0.0583    0.0981   -0.1069   -0.0627
  S   O   39    0.0455    0.0387   -0.0350    0.0014   -0.0109   -0.2090   -0.1676   -0.0439
  Px  O   39   -0.0054   -0.0056    0.0054   -0.0002    0.0024    0.0488    0.0407    0.0107
  Py  O   39    0.0099    0.0097   -0.0091    0.0004   -0.0037   -0.0727   -0.0601   -0.0157
  Pz  O   39    0.0038    0.0033   -0.0029    0.0001   -0.0009   -0.0148   -0.0117   -0.0030
  S   H   40    0.0173    0.0152   -0.0138    0.0006   -0.0044   -0.0823   -0.0661   -0.0172
  S   H   41    0.0149    0.0130   -0.0119    0.0005   -0.0040   -0.0771   -0.0624   -0.0164
  S   O   42    0.8171    0.0863    0.1658    0.0307    0.0118    0.0134   -0.0014    0.0032
  Px  O   42    0.1744    0.0184    0.0354    0.0066    0.0023    0.0028   -0.0001    0.0008
  Py  O   42    0.1315    0.0135    0.0256    0.0046    0.0018    0.0018   -0.0003    0.0004
  Pz  O   42    0.0659    0.0066    0.0124    0.0022    0.0009    0.0007   -0.0002    0.0001
  S   H   43    0.2811    0.0296    0.0568    0.0106    0.0036    0.0045   -0.0002    0.0012
  S   H   44    0.3168    0.0324    0.0613    0.0111    0.0043    0.0041   -0.0007    0.0009
  S   O   45   -0.1528    0.5259    0.5183   -0.0752   -0.3240    0.0427    0.0041   -0.1962
  Px  O   45   -0.0146    0.0522    0.0499   -0.0092   -0.0215   -0.0004    0.0078   -0.0276
  Py  O   45    0.0363   -0.1236   -0.1214    0.0178    0.0741   -0.0089   -0.0032    0.0496
  Pz  O   45   -0.0087    0.0325    0.0322   -0.0042   -0.0217    0.0033   -0.0014   -0.0099
  S   H   46   -0.0614    0.2100    0.2035   -0.0311   -0.1089    0.0107    0.0081   -0.0750
  S   H   47   -0.0527    0.1776    0.1752   -0.0239   -0.1116    0.0159   -0.0018   -0.0603
  S   O   48   -0.0340    0.1119    0.1185    0.0200   -0.1505    0.0879   -0.1988    0.3683
  Px  O   48   -0.0077    0.0257    0.0269    0.0011   -0.0316    0.0163   -0.0348    0.0599
  Py  O   48    0.0001   -0.0001    0.0001    0.0003   -0.0025    0.0023   -0.0060    0.0120
  Pz  O   48    0.0062   -0.0202   -0.0214   -0.0040    0.0269   -0.0157    0.0356   -0.0662
  S   H   49   -0.0117    0.0384    0.0408    0.0075   -0.0521    0.0308   -0.0700    0.1305
  S   H   50   -0.0171    0.0558    0.0583    0.0069   -0.0671    0.0359   -0.0787    0.1413
  S   O   51    0.0055   -0.0260    0.0314   -0.0014    0.0288    0.6023    0.5226    0.1359
  Px  O   51   -0.0005   -0.0024    0.0026   -0.0001    0.0012    0.0123    0.0084    0.0018
  Py  O   51    0.0015   -0.0073    0.0087   -0.0004    0.0079    0.1633    0.1412    0.0367
  Pz  O   51   -0.0002    0.0003   -0.0004    0.0000   -0.0004   -0.0077   -0.0068   -0.0017
  S   H   52    0.0013   -0.0119    0.0139   -0.0006    0.0110    0.2098    0.1784    0.0458
  S   H   53    0.0033   -0.0087    0.0109   -0.0005    0.0107    0.2297    0.1999    0.0521
  S   O   54   -0.0399   -0.0118    0.0108   -0.0027    0.0001    0.0212    0.0167    0.0011
  Px  O   54   -0.0023   -0.0007    0.0007   -0.0002    0.0000    0.0018    0.0015    0.0001
  Py  O   54   -0.0115   -0.0041    0.0037   -0.0008    0.0003    0.0113    0.0091    0.0015
  Pz  O   54   -0.0018   -0.0007    0.0006   -0.0000    0.0001    0.0014    0.0010    0.0004
  S   H   55   -0.0157   -0.0048    0.0044   -0.0011    0.0001    0.0094    0.0074    0.0006
  S   H   56   -0.0124   -0.0038    0.0034   -0.0007    0.0002    0.0070    0.0055    0.0008
  S   O   57   -0.0172    0.0333    0.0388    0.1117   -0.0685    0.0907   -0.2629    0.6232
  Px  O   57   -0.0048    0.0092    0.0107    0.0308   -0.0181    0.0235   -0.0678    0.1602
  Py  O   57   -0.0015    0.0033    0.0038    0.0070   -0.0072    0.0090   -0.0259    0.0610
  Pz  O   57    0.0007   -0.0007   -0.0009   -0.0050    0.0014   -0.0022    0.0065   -0.0157
  S   H   58   -0.0076    0.0136    0.0158    0.0473   -0.0264    0.0345   -0.0992    0.2346
  S   H   59   -0.0068    0.0139    0.0160    0.0412   -0.0272    0.0342   -0.0982    0.2310
  S   O   60    0.0190    0.2776   -0.2722    0.0025    0.2244    0.3294   -0.3566   -0.1566
  Px  O   60    0.0039    0.0410   -0.0452    0.0013    0.0299    0.0575   -0.0621   -0.0284
  Py  O   60   -0.0017    0.0091    0.0014   -0.0015    0.0207    0.0036   -0.0058   -0.0000
  Pz  O   60   -0.0052   -0.0578    0.0620   -0.0014   -0.0370   -0.0667    0.0707    0.0322
  S   H   61    0.0064    0.1022   -0.0972    0.0005    0.0860    0.1174   -0.1278   -0.0552
  S   H   62    0.0097    0.1021   -0.1100    0.0027    0.0599    0.1111   -0.1164   -0.0534
  S   O   63   -0.0133    0.0098    0.0054    0.2126    0.0154   -0.0283    0.0603   -0.1830
  Px  O   63   -0.0016    0.0011    0.0005    0.0251    0.0018   -0.0036    0.0076   -0.0231
  Py  O   63   -0.0036    0.0026    0.0014    0.0553    0.0039   -0.0069    0.0147   -0.0444
  Pz  O   63    0.0006   -0.0004   -0.0001   -0.0079   -0.0004    0.0006   -0.0011    0.0032
  S   H   64   -0.0065    0.0047    0.0027    0.0985    0.0067   -0.0114    0.0240   -0.0721
  S   H   65   -0.0047    0.0035    0.0019    0.0750    0.0054   -0.0100    0.0213   -0.0646
  S   O   66   -0.0040   -0.0020    0.0061   -0.0109   -0.0015    0.0022   -0.0015    0.0051
  Px  O   66    0.0008    0.0004   -0.0012    0.0021    0.0003   -0.0004    0.0003   -0.0009
  Py  O   66   -0.0006   -0.0003    0.0009   -0.0016   -0.0002    0.0003   -0.0002    0.0007
  Pz  O   66   -0.0004   -0.0002    0.0006   -0.0010   -0.0002    0.0003   -0.0002    0.0005
  S   H   67   -0.0014   -0.0007    0.0020   -0.0037   -0.0004    0.0006   -0.0004    0.0014
  S   H   68   -0.0015   -0.0007    0.0023   -0.0039   -0.0005    0.0008   -0.0005    0.0018
  S   H   69    0.0051   -0.0017   -0.0024   -0.0038    0.0038   -0.0040    0.0043   -0.0107
  S   H   70   -0.0168    0.0018    0.0051    0.0008   -0.0079    0.0085   -0.0031    0.0094


   Root No.      17        18        19        20        21        22        23        24

                17 A      18 A      19 A      20 A      21 A      22 A      23 A      24 A   

               -27.684   -27.624   -27.454   -27.032   -25.177   -24.343   -22.047   -20.330
  
  S   C    1   -0.0035    0.0015    0.0262   -0.0930   -0.0084   -0.2110    0.3305    0.0761
  Px  C    1    0.0034   -0.0016   -0.0035   -0.0391   -0.0043   -0.0329   -0.0122   -0.0319
  Py  C    1    0.0089   -0.0042   -0.0178   -0.0644   -0.0046   -0.1050    0.1286    0.0377
  Pz  C    1   -0.0067    0.0033    0.0113    0.0649    0.0072    0.1119   -0.1444   -0.0176
  S   O    2   -0.0184    0.0079    0.0385    0.0814    0.0105    0.1394   -0.2376   -0.0506
  Px  O    2   -0.0033    0.0017    0.0132    0.0017   -0.0016   -0.0014    0.0049   -0.0113
  Py  O    2   -0.0015    0.0012    0.0086   -0.0046    0.0017   -0.0280    0.0713    0.0341
  Pz  O    2    0.0081   -0.0043   -0.0315   -0.0002    0.0006    0.0298   -0.0858   -0.0223
  S   N    3    0.0083   -0.0045   -0.0103   -0.1068   -0.0025   -0.0416   -0.1030   -0.0349
  Px  N    3   -0.0037    0.0020   -0.0093    0.1359    0.0153    0.2732   -0.3191   -0.0279
  Py  N    3    0.0059   -0.0030   -0.0043   -0.0917   -0.0021   -0.1043   -0.0048    0.0100
  Pz  N    3   -0.0023    0.0014    0.0062    0.0184   -0.0006    0.0197    0.0278    0.0114
  S   H    4    0.0045   -0.0024   -0.0069   -0.0514    0.0006   -0.0280   -0.0682   -0.0104
  S   C    5   -0.0151    0.0078   -0.0073    0.3378    0.0298    0.4027   -0.1561    0.0543
  Px  C    5   -0.0027    0.0012    0.0001    0.0443    0.0132    0.0109    0.0438    0.0668
  Py  C    5    0.0078   -0.0037   -0.0015   -0.1172    0.0023    0.0215   -0.2063    0.0021
  Pz  C    5    0.0012    0.0000    0.0043   -0.0364   -0.0073   -0.0415   -0.0072   -0.0020
  S   H    6   -0.0069    0.0046    0.0006    0.1430    0.0078    0.1526   -0.0590    0.0213
  S   C    7   -0.0283    0.0129   -0.0058    0.4900    0.0126    0.1175    0.3532   -0.0014
  Px  C    7   -0.0030    0.0005   -0.0005    0.0263    0.0452   -0.0464   -0.0042    0.1231
  Py  C    7    0.0024   -0.0009   -0.0014    0.0078    0.0237    0.1901   -0.0812    0.0628
  Pz  C    7   -0.0047    0.0024   -0.0002    0.0631   -0.0155   -0.0186   -0.0398   -0.0367
  S   H    8   -0.0114    0.0056   -0.0019    0.2013   -0.0208    0.0484    0.1818   -0.0742
  S   H    9   -0.0116    0.0048   -0.0026    0.2019    0.0267    0.0496    0.1769    0.0568
  S   C   10   -0.0296    0.0126   -0.0026    0.3193   -0.0225   -0.3088    0.0364   -0.0461
  Px  C   10   -0.0019   -0.0030    0.0005   -0.0577    0.2059   -0.0509   -0.0954    0.3275
  Py  C   10   -0.0048    0.0016   -0.0017    0.1301    0.0679    0.0837    0.1510    0.0933
  Pz  C   10    0.0041   -0.0006    0.0008   -0.0934   -0.0744   -0.0326   -0.1441   -0.1021
  S   C   11   -0.0022    0.0094   -0.0000    0.0445   -0.4259   -0.1845   -0.1725   -0.2684
  Px  C   11   -0.0032    0.0011    0.0001   -0.0222    0.0075   -0.0360   -0.0201    0.0790
  Py  C   11   -0.0129    0.0022   -0.0011    0.1268    0.0890   -0.0957    0.0462   -0.1913
  Pz  C   11    0.0104   -0.0018    0.0005   -0.0935   -0.0635    0.0838   -0.0440    0.1377
  S   H   12   -0.0018    0.0041    0.0001    0.0456   -0.1879   -0.0716   -0.0602   -0.1876
  S   C   13    0.0253    0.0026    0.0016   -0.2092   -0.3959    0.1696   -0.0025    0.3191
  Px  C   13   -0.0058   -0.0020    0.0011   -0.0847    0.1079    0.1228    0.1414    0.0330
  Py  C   13   -0.0072    0.0022    0.0000    0.0198   -0.0736   -0.1018   -0.1180   -0.1513
  Pz  C   13    0.0076   -0.0016   -0.0004   -0.0053    0.0419    0.0609    0.0644    0.1068
  S   H   14    0.0285    0.0004   -0.0001   -0.0753   -0.1770    0.0862    0.0102    0.2170
  S   C   15    0.0092   -0.0052    0.0035   -0.2947    0.0511    0.3543    0.2787   -0.0345
  Px  C   15   -0.0081   -0.0039    0.0005    0.0156    0.2213   -0.0060    0.0340   -0.3238
  Py  C   15   -0.0034   -0.0009    0.0007   -0.0363    0.0608   -0.0281   -0.0671   -0.0762
  Pz  C   15    0.0040    0.0008   -0.0006    0.0240   -0.0718    0.0203    0.0414    0.0947
  S   H   16    0.0049   -0.0026    0.0013   -0.1111    0.0248    0.1759    0.1736   -0.0269
  S   C   17   -0.0217   -0.0002    0.0005    0.0588    0.3917   -0.2529   -0.1945    0.3112
  Px  C   17    0.0063   -0.0056    0.0012   -0.0929    0.0960    0.0897   -0.0402   -0.0258
  Py  C   17   -0.0016    0.0037   -0.0016    0.1036   -0.0679   -0.0366    0.0388    0.1548
  Pz  C   17    0.0006   -0.0014    0.0008   -0.0675    0.0390    0.0238   -0.0368   -0.1119
  S   H   18   -0.0088    0.0004   -0.0001    0.0503    0.1771   -0.1025   -0.0772    0.2211
  S   C   19   -0.0082   -0.0110    0.0040   -0.2057    0.4332    0.0964   -0.0086   -0.2649
  Px  C   19    0.0010   -0.0035   -0.0002    0.0473    0.0148   -0.0135   -0.0138   -0.0742
  Py  C   19   -0.0055    0.0010   -0.0005    0.0613    0.0726   -0.1544   -0.1671    0.1735
  Pz  C   19    0.0043   -0.0006    0.0005   -0.0504   -0.0581    0.1163    0.1204   -0.1185
  S   H   20   -0.0028   -0.0088    0.0020   -0.0727    0.1965    0.0474    0.0014   -0.1749
  S   O   21   -0.0001   -0.0002    0.0006   -0.0007   -0.0004   -0.0014    0.0033   -0.0003
  Px  O   21   -0.0000   -0.0000   -0.0000    0.0004    0.0001    0.0008   -0.0003    0.0004
  Py  O   21    0.0000    0.0000   -0.0001   -0.0001   -0.0000   -0.0003    0.0007   -0.0003
  Pz  O   21   -0.0000   -0.0001    0.0001   -0.0003   -0.0000   -0.0001   -0.0003    0.0000
  S   H   22   -0.0000   -0.0001    0.0002   -0.0006   -0.0001   -0.0009    0.0000   -0.0002
  S   H   23   -0.0001   -0.0001    0.0002    0.0002    0.0000    0.0007   -0.0008    0.0004
  S   O   24   -0.2343    0.0104    0.0496   -0.0184    0.0187    0.0014    0.0073    0.0093
  Px  O   24    0.0505   -0.0020   -0.0092    0.0042   -0.0087   -0.0010   -0.0049   -0.0091
  Py  O   24   -0.0682    0.0025    0.0081   -0.0039    0.0008    0.0000   -0.0025   -0.0095
  Pz  O   24    0.0228   -0.0009   -0.0024    0.0006    0.0052    0.0010    0.0043    0.0114
  S   H   25   -0.0744    0.0033    0.0159   -0.0062    0.0084    0.0008    0.0042    0.0079
  S   H   26   -0.0948    0.0038    0.0149   -0.0052   -0.0010   -0.0000   -0.0047   -0.0106
  S   O   27    0.0318    0.5730   -0.0144   -0.0072   -0.0212    0.0057    0.0043   -0.0057
  Px  O   27    0.0051    0.0900   -0.0023   -0.0004   -0.0139    0.0038    0.0065   -0.0110
  Py  O   27    0.0078    0.1470   -0.0036   -0.0016   -0.0023   -0.0002   -0.0005    0.0071
  Pz  O   27    0.0010    0.0211   -0.0003    0.0003    0.0062   -0.0010   -0.0024    0.0015
  S   H   28    0.0118    0.2106   -0.0053   -0.0024   -0.0117    0.0029    0.0037   -0.0052
  S   H   29    0.0104    0.1894   -0.0043   -0.0018    0.0034   -0.0013   -0.0033    0.0071
  S   O   30    0.0120   -0.2413    0.0486    0.0368   -0.0437   -0.0024    0.0034    0.0086
  Px  O   30    0.0038   -0.0522    0.0159    0.0092   -0.0089    0.0004    0.0010   -0.0014
  Py  O   30   -0.0011    0.0107   -0.0053    0.0004   -0.0065   -0.0022    0.0002    0.0154
  Pz  O   30   -0.0020    0.0360   -0.0084   -0.0054    0.0018    0.0010    0.0017   -0.0022
  S   H   31    0.0050   -0.0845    0.0199    0.0102   -0.0028    0.0017    0.0002   -0.0108
  S   H   32    0.0040   -0.0775    0.0156    0.0127   -0.0127   -0.0019   -0.0003    0.0081
  S   O   33   -0.0172   -0.4133    0.0126    0.0288   -0.0334   -0.0073   -0.0004    0.0176
  Px  O   33    0.0034    0.0808   -0.0026   -0.0034   -0.0001   -0.0004   -0.0003    0.0054
  Py  O   33   -0.0013   -0.0301    0.0007    0.0025   -0.0013   -0.0003   -0.0006   -0.0056
  Pz  O   33    0.0027    0.0730   -0.0027   -0.0041    0.0053    0.0013    0.0003   -0.0053
  S   H   34   -0.0047   -0.1188    0.0036    0.0082   -0.0066   -0.0011   -0.0005   -0.0034
  S   H   35   -0.0062   -0.1476    0.0046    0.0077   -0.0049   -0.0006    0.0004   -0.0005
  S   O   36   -0.0116   -0.2967    0.0052   -0.0194   -0.0318    0.0108    0.0054   -0.0143
  Px  O   36   -0.0008   -0.0229    0.0004   -0.0027   -0.0025    0.0011   -0.0013   -0.0006
  Py  O   36   -0.0029   -0.0720    0.0012   -0.0038   -0.0055    0.0013    0.0008    0.0022
  Pz  O   36    0.0000    0.0053   -0.0001    0.0006    0.0084   -0.0037   -0.0056    0.0119
  S   H   37   -0.0033   -0.0859    0.0014   -0.0064   -0.0020   -0.0000   -0.0033    0.0059
  S   H   38   -0.0043   -0.1090    0.0019   -0.0057   -0.0108    0.0034    0.0034   -0.0035
  S   O   39   -0.0033   -0.0160    0.0006   -0.0107   -0.0002   -0.0023   -0.0045    0.0001
  Px  O   39    0.0010    0.0043   -0.0001    0.0007    0.0001    0.0009    0.0028    0.0001
  Py  O   39   -0.0015   -0.0062    0.0001    0.0001    0.0000   -0.0001    0.0002    0.0001
  Pz  O   39   -0.0003   -0.0010    0.0000    0.0007    0.0000    0.0007    0.0029   -0.0001
  S   H   40   -0.0015   -0.0062    0.0001   -0.0010    0.0001    0.0005    0.0024    0.0000
  S   H   41   -0.0013   -0.0061    0.0002   -0.0032   -0.0001   -0.0010   -0.0023   -0.0000
  S   O   42   -0.0071    0.0099   -0.0021    0.1047    0.0078   -0.0377   -0.0174   -0.0050
  Px  O   42   -0.0016    0.0017   -0.0004    0.0230    0.0041   -0.0090   -0.0046   -0.0065
  Py  O   42   -0.0008    0.0015   -0.0002    0.0087   -0.0016    0.0039    0.0059    0.0063
  Pz  O   42   -0.0002    0.0008   -0.0001    0.0007   -0.0026    0.0071    0.0076    0.0078
  S   H   43   -0.0025    0.0026   -0.0007    0.0358    0.0052   -0.0133   -0.0066   -0.0065
  S   H   44   -0.0019    0.0035   -0.0005    0.0196   -0.0029    0.0075    0.0093    0.0081
  S   O   45   -0.0310    0.0547   -0.1502   -0.0460    0.0010   -0.0070    0.0050   -0.0024
  Px  O   45   -0.0061    0.0024   -0.0336   -0.0071    0.0015   -0.0053    0.0026    0.0038
  Py  O   45    0.0086   -0.0124    0.0423    0.0107    0.0004    0.0031   -0.0007    0.0013
[...]
  
  S  C   5   0.00016     0.00016    -0.00000    -0.01173    -0.00000     0.00043
 PX  C   5  -0.00001    -0.00001     0.00010     0.00745     0.00000     0.00004
 PY  C   5  -0.00020    -0.00028    -0.00005     0.05391     0.00001    -0.00011
 PZ  C   5  -0.00007    -0.00011     0.00007     0.04478     0.00001     0.00061
  
  S  H   6   0.00005    -0.00016    -0.00002    -0.02439    -0.00001    -0.00089
  
  S  C   7   0.00024    -0.00174    -0.00002     0.03144     0.00005    -0.00001
 PX  C   7   0.00026    -0.00091    -0.00001    -0.00101     0.00004    -0.00002
 PY  C   7   0.00019    -0.00024    -0.00003     0.03120    -0.00006    -0.00007
 PZ  C   7  -0.00066     0.00184    -0.00002     0.02027     0.00007    -0.00001
  
  S  H   8  -0.00016     0.00042     0.00001    -0.00564     0.00003     0.00000
  
  S  H   9  -0.00101     0.00347     0.00000    -0.00129    -0.00005     0.00004
  
  S  C  10  -0.00053     0.00001    -0.00001    -0.00439    -0.00034    -0.00002
 PX  C  10  -0.00089    -0.00005     0.00001     0.00202     0.00032     0.00001
 PY  C  10  -0.00149     0.00016     0.00001     0.00094     0.00019    -0.00002
 PZ  C  10  -0.00243     0.00023     0.00001     0.00869    -0.00027     0.00002
  
  S  C  11   0.00030    -0.00010     0.00008     0.00047     0.00020     0.00002
 PX  C  11   0.00019    -0.00007    -0.00012     0.00041     0.00023    -0.00003
 PY  C  11   0.00007    -0.00015     0.00003    -0.00210    -0.00008     0.00001
 PZ  C  11  -0.00053    -0.00005     0.00001    -0.00335    -0.00013     0.00001
  
  S  H  12  -0.00013    -0.00000    -0.00002     0.00046     0.00031    -0.00001
  
  S  C  13   0.00013     0.00001     0.00001    -0.00023    -0.00371    -0.00000
 PX  C  13   0.00025    -0.00002    -0.00001     0.00020     0.00292     0.00000
 PY  C  13   0.00107    -0.00001    -0.00000    -0.00053     0.00319    -0.00000
 PZ  C  13   0.00143    -0.00004     0.00003    -0.00021    -0.00227     0.00001
  
  S  H  14   0.00002    -0.00002    -0.00001     0.00015     0.00814    -0.00000
  
  S  C  15   0.00010    -0.00000     0.00000    -0.00021     0.00020     0.00000
 PX  C  15   0.00013     0.00000    -0.00001     0.00039    -0.00021    -0.00000
 PY  C  15  -0.00013     0.00007     0.00000     0.00188     0.00016    -0.00000
 PZ  C  15  -0.00035     0.00010     0.00000     0.00283    -0.00026    -0.00001
  
  S  H  16  -0.00012     0.00000    -0.00000    -0.00001     0.00033    -0.00000
  
  S  C  17   0.00382    -0.00001     0.00001     0.00090    -0.00009     0.00000
 PX  C  17   0.00240    -0.00012    -0.00001    -0.00155     0.00003    -0.00001
 PY  C  17   0.00452    -0.00014     0.00000    -0.00315     0.00011     0.00001
 PZ  C  17   0.00025    -0.00013     0.00000    -0.00374     0.00004     0.00001
  
  S  H  18  -0.00744     0.00005    -0.00000     0.00029    -0.00006     0.00000
  
  S  C  19   0.00014     0.00000     0.00000    -0.00027    -0.00029    -0.00000
 PX  C  19   0.00035    -0.00001    -0.00000    -0.00012     0.00022     0.00000
 PY  C  19  -0.00137    -0.00001    -0.00001    -0.00153     0.00029    -0.00000
 PZ  C  19  -0.00128    -0.00002    -0.00001    -0.00130    -0.00023     0.00000
  
  S  H  20  -0.00076     0.00001     0.00000     0.00018     0.00011     0.00000
  
  S  O  21   0.00000     0.00000     0.00000    -0.00012     0.00000     0.00000
 PX  O  21   0.00000    -0.00000    -0.00000     0.00010    -0.00000    -0.00000
 PY  O  21  -0.00000    -0.00000    -0.00000     0.00008    -0.00000    -0.00000
 PZ  O  21   0.00000     0.00000     0.00000    -0.00013     0.00000     0.00000
  
  S  H  22   0.00000    -0.00000    -0.00000     0.00058    -0.00000    -0.00000
  
  S  H  23  -0.00000    -0.00000    -0.00000     0.00029    -0.00000    -0.00000
  
  S  O  24   0.00000     0.00000     0.00209     0.00005     0.00110     0.00022
 PX  O  24  -0.00000    -0.00000    -0.00130    -0.00002    -0.00154    -0.00010
 PY  O  24   0.00000     0.00000     0.00313     0.00011     0.00098     0.00044
 PZ  O  24  -0.00000    -0.00000    -0.00161    -0.00005    -0.00015    -0.00023
  
  S  H  25  -0.00000    -0.00000    -0.00305    -0.00005    -0.00365    -0.00016
  
  S  H  26  -0.00001    -0.00000    -0.00773    -0.00016    -0.00228    -0.00078
  
  S  O  27   0.00008    -0.00002     0.00000    -0.00000    -0.00000    -0.00000
 PX  O  27  -0.00017     0.00001    -0.00000    -0.00000    -0.00000     0.00000
 PY  O  27   0.00025    -0.00001     0.00000     0.00001    -0.00000    -0.00000
 PZ  O  27   0.00018     0.00002     0.00000     0.00001    -0.00000    -0.00000
  
  S  H  28   0.00015     0.00002    -0.00000     0.00001     0.00000     0.00000
  
  S  H  29  -0.00063     0.00002    -0.00000    -0.00001     0.00000     0.00000
  
  S  O  30   0.00001     0.00000     0.00000     0.00007    -0.00000    -0.00000
 PX  O  30   0.00002    -0.00000    -0.00000     0.00003    -0.00000    -0.00000
 PY  O  30  -0.00002    -0.00000     0.00000    -0.00001     0.00000     0.00000
 PZ  O  30  -0.00002    -0.00000    -0.00000    -0.00007     0.00000     0.00000
  
  S  H  31  -0.00002    -0.00000    -0.00000    -0.00016     0.00001     0.00000
  
  S  H  32  -0.00000    -0.00000    -0.00000    -0.00015     0.00000     0.00000
  
  S  O  33  -0.00014    -0.00000    -0.00000    -0.00001    -0.00000    -0.00000
 PX  O  33   0.00014     0.00001     0.00000     0.00001     0.00001     0.00000
 PY  O  33  -0.00011    -0.00001     0.00000    -0.00001    -0.00000    -0.00000
 PZ  O  33   0.00013     0.00001     0.00000     0.00001     0.00000     0.00000
  
  S  H  34   0.00044     0.00001    -0.00000     0.00002     0.00001     0.00000
  
  S  H  35   0.00033     0.00001     0.00000     0.00002     0.00001     0.00000
  
  S  O  36  -0.00043    -0.00031     0.00000    -0.00001     0.00000    -0.00000
 PX  O  36   0.72539     0.00005     0.00000    -0.00001    -0.00000     0.00000
 PY  O  36  -0.27793    -0.00055     0.00000    -0.00001     0.00000    -0.00000
 PZ  O  36  -0.62964     0.00029     0.00000    -0.00003     0.00000     0.00000
  
  S  H  37   0.00010     0.00024    -0.00000     0.00003     0.00000     0.00000
  
  S  H  38   0.00004     0.00134    -0.00000    -0.00001    -0.00000     0.00000
  
  S  O  39   0.00001     0.00025     0.00000     0.00072     0.00000     0.00000
 PX  O  39   0.00001    -0.00032     0.00000     0.00007     0.00000     0.00000
 PY  O  39  -0.00000     0.00029     0.00000     0.00121     0.00000     0.00000
 PZ  O  39   0.00001     0.00002     0.00000     0.00086     0.00000     0.00000
  
  S  H  40  -0.00002    -0.00044    -0.00000    -0.00322    -0.00000    -0.00000
  
  S  H  41  -0.00002    -0.00091    -0.00000    -0.00052    -0.00000     0.00000
  
  S  O  42   0.00010    -0.00002     0.00000     0.00004     0.00000    -0.00000
 PX  O  42   0.00012    -0.00002     0.00000     0.00003     0.00000    -0.00000
 PY  O  42   0.00010    -0.00002     0.00000     0.00007    -0.00000    -0.00000
 PZ  O  42   0.00005    -0.00001     0.00000     0.00006    -0.00000    -0.00000
  
  S  H  43  -0.00024     0.00005    -0.00000    -0.00003    -0.00000     0.00000
  
  S  H  44  -0.00026     0.00006    -0.00000    -0.00012    -0.00001     0.00000
  
  S  O  45   0.00000     0.00000     0.00003     0.00053     0.00000     0.00003
 PX  O  45   0.00000     0.00000    -0.00003     0.00017    -0.00000    -0.00012
 PY  O  45  -0.00001    -0.00000    -0.00003    -0.00069    -0.00000    -0.00005
 PZ  O  45   0.00000    -0.00000     0.00002     0.00007     0.00000     0.00004
  
  S  H  46  -0.00001    -0.00001    -0.00003    -0.00126    -0.00000     0.00010
  
  S  H  47  -0.00001    -0.00001    -0.00008    -0.00126    -0.00001    -0.00022
  
  S  O  48   0.00000     0.00000     0.00018     0.00004     0.00000     0.00596
 PX  O  48   0.00000     0.00000     0.00034     0.00005     0.00000     0.55069
 PY  O  48  -0.00000    -0.00000    -0.00021    -0.00044    -0.00000     0.37761
 PZ  O  48  -0.00000    -0.00000    -0.00015     0.00006    -0.00000     0.74351
  
  S  H  49   0.00000    -0.00000    -0.00004     0.00051    -0.00000     0.00000
  
  S  H  50  -0.00000    -0.00000    -0.00082    -0.00040    -0.00001    -0.00034
  
  S  O  51   0.00024     0.00012    -0.00000     0.00010     0.00000    -0.00000
 PX  O  51   0.00035     0.12943    -0.00000    -0.00009     0.00000    -0.00000
 PY  O  51   0.00037     0.04274    -0.00000     0.00021     0.00000    -0.00000
 PZ  O  51  -0.00006     0.99066    -0.00000     0.00001     0.00000    -0.00000
  
  S  H  52  -0.00111    -0.00003     0.00000    -0.00013    -0.00000     0.00000
  
  S  H  53  -0.00019     0.00002     0.00000    -0.00030    -0.00000     0.00000
  
  S  O  54   0.00000     0.00002     0.00000     0.00047     0.00000     0.00000
 PX  O  54   0.00000     0.00001    -0.00000    -0.00012     0.00000    -0.00000
 PY  O  54  -0.00000     0.00001     0.00000     0.00064     0.00000     0.00000
 PZ  O  54  -0.00000     0.00000     0.00001     0.00049     0.00000     0.00001
  
  S  H  55  -0.00000    -0.00004    -0.00000    -0.00067    -0.00000    -0.00000
  
  S  H  56   0.00000    -0.00004    -0.00001    -0.00192    -0.00000    -0.00000
  
  S  O  57   0.00000     0.00000     0.00026     0.00233     0.00002     0.00805
 PX  O  57   0.00000     0.00000    -0.35800     0.00495     0.00004     0.01243
 PY  O  57   0.00000     0.00000     0.86913     0.00012    -0.00001     0.00671
 PZ  O  57  -0.00000    -0.00000    -0.34111    -0.00446    -0.00002     0.00407
  
  S  H  58  -0.00000    -0.00000     0.00012    -0.00796    -0.00004    -0.01323
  
  S  H  59  -0.00000    -0.00000     0.00001    -0.00156    -0.00002    -0.02924
  
  S  O  60   0.00000    -0.00000     0.00000    -0.00000    -0.00000    -0.00000
 PX  O  60  -0.00001    -0.00000    -0.00000    -0.00000    -0.00000    -0.00000
 PY  O  60   0.00001     0.00000     0.00000     0.00001     0.00000    -0.00000
 PZ  O  60  -0.00000     0.00000    -0.00000     0.00001     0.00001     0.00000
  
  S  H  61  -0.00001     0.00000    -0.00000     0.00000     0.00000     0.00000
  
  S  H  62  -0.00000     0.00000    -0.00000     0.00001     0.00001     0.00000
  
  S  O  63  -0.00000     0.00000     0.00011     0.00000    -0.00136     0.00001
 PX  O  63  -0.00000     0.00000     0.00001    -0.00000     0.73774     0.00000
 PY  O  63  -0.00000     0.00000     0.00028     0.00001    -0.41156     0.00003
 PZ  O  63   0.00000    -0.00000    -0.00017    -0.00001    -0.53499    -0.00002
  
  S  H  64   0.00000    -0.00000    -0.00032    -0.00001    -0.00002    -0.00003
  
  S  H  65   0.00000    -0.00000    -0.00007     0.00000    -0.00003    -0.00001
  
  S  O  66   0.00000    -0.00000     0.00000    -0.00000    -0.00017     0.00000
 PX  O  66  -0.00000     0.00000    -0.00000     0.00001     0.00021    -0.00000
 PY  O  66   0.00000    -0.00000     0.00000    -0.00001    -0.00024     0.00000
 PZ  O  66  -0.00000     0.00000    -0.00000     0.00000     0.00007    -0.00000
  
  S  H  67  -0.00000     0.00000    -0.00000     0.00001     0.00066    -0.00000
  
  S  H  68  -0.00000     0.00000    -0.00000     0.00000     0.00017    -0.00000
  
  S  H  69  -0.00001    -0.00001     0.00046    -0.00328     0.00001    -0.00009
  
  S  H  70  -0.00006     0.00008     0.00003    -0.00930     0.00000    -0.00003




    ROOT NO.   91          92          93

           -10.55288   -10.51050   -10.16543
  
  
  S  C   1   0.00025    -0.00009    -0.00068
 PX  C   1   0.00135    -0.00146    -0.00238
 PY  C   1   0.00201    -0.00221    -0.00306
 PZ  C   1   0.00154    -0.00157    -0.00203
  
  S  O   2   0.00011    -0.00018    -0.00017
 PX  O   2  -0.00032     0.00043     0.00040
 PY  O   2  -0.00050     0.00049     0.00060
 PZ  O   2  -0.00086     0.00108     0.00104
  
  S  N   3  -0.00134     0.00159     0.00294
 PX  N   3  -0.00126     0.00173     0.00256
 PY  N   3   0.00155    -0.00216    -0.00186
 PZ  N   3  -0.00017     0.00009     0.00094
  
  S  H   4   0.00175    -0.00206    -0.00307
  
  S  C   5   0.01104    -0.01465    -0.02032
 PX  C   5  -0.00188     0.00170     0.00496
 PY  C   5  -0.01458     0.01845     0.02133
 PZ  C   5  -0.00594     0.00635     0.01049
  
  S  H   6  -0.00114     0.00325     0.00439
  
  S  C   7  -0.00185     0.00282     0.00450
 PX  C   7   0.00170    -0.00211    -0.00105
 PY  C   7  -0.00651     0.00636     0.02183
 PZ  C   7  -0.00184     0.00094     0.01342
  
  S  H   8  -0.00659     0.00690     0.00980
  
  S  H   9  -0.00872     0.01185     0.01077
  
  S  C  10  -0.00281     0.00278     0.00406
 PX  C  10  -0.01758     0.02843     0.04056
 PY  C  10  -0.13747     0.21520     0.35373
 PZ  C  10  -0.16513     0.26013     0.42806
  
  S  C  11   0.00007    -0.00164    -0.00137
 PX  C  11  -0.00947     0.06207     0.00938
 PY  C  11  -0.06252     0.41638     0.06955
 PZ  C  11  -0.08525     0.55364     0.09390
  
  S  H  12   0.00076    -0.00065    -0.00099
  
  S  C  13   0.00074    -0.00169     0.00027
 PX  C  13   0.03334     0.05731    -0.02208
 PY  C  13   0.19514     0.33527    -0.12451
 PZ  C  13   0.27298     0.47285    -0.17575
  
  S  H  14  -0.00114    -0.00301     0.00131
  
  S  C  15  -0.00551    -0.00057     0.00220
 PX  C  15   0.06812     0.00961    -0.00828
 PY  C  15   0.41375     0.06013    -0.05383
 PZ  C  15   0.56942     0.08453    -0.07636
  
  S  H  16   0.00145    -0.00010    -0.00025
  
  S  C  17   0.00106    -0.00179    -0.00253
 PX  C  17   0.00728    -0.00675     0.07487
 PY  C  17   0.05814    -0.05240     0.42276
 PZ  C  17   0.07544    -0.06767     0.54667
  
  S  H  18   0.00057    -0.00021    -0.00178
  
  S  C  19  -0.00429     0.00298    -0.00455
 PX  C  19   0.04969    -0.01895     0.03438
 PY  C  19   0.33026    -0.12095     0.21683
 PZ  C  19   0.45170    -0.16541     0.29488
  
  S  H  20   0.00320    -0.00199     0.00148
  
  S  O  21  -0.00000     0.00000     0.00001
 PX  O  21   0.00002    -0.00002    -0.00003
 PY  O  21   0.00000    -0.00000    -0.00001
 PZ  O  21  -0.00001     0.00001     0.00002
  
  S  H  22   0.00003    -0.00003    -0.00006
  
  S  H  23  -0.00000     0.00001    -0.00000
  
  S  O  24   0.00006    -0.00077    -0.00004
 PX  O  24  -0.00006     0.00062    -0.00005
 PY  O  24   0.00018    -0.00103    -0.00016
 PZ  O  24  -0.00008     0.00044     0.00013
  
  S  H  25  -0.00007     0.00151    -0.00005
  
  S  H  26  -0.00040     0.00363     0.00013
  
  S  O  27  -0.00003     0.00002    -0.00006
 PX  O  27   0.00005    -0.00003     0.00013
 PY  O  27  -0.00027     0.00018    -0.00037
 PZ  O  27  -0.00024     0.00016    -0.00037
  
  S  H  28  -0.00013     0.00010    -0.00029
  
  S  H  29   0.00049    -0.00037     0.00132
  
  S  O  30  -0.00208     0.00096    -0.00208
 PX  O  30  -0.00271     0.00126    -0.00279
 PY  O  30   0.00245    -0.00140     0.00210
 PZ  O  30   0.00198    -0.00117     0.00183
  
  S  H  31   0.00906    -0.00368     0.00754
  
  S  H  32   0.00342    -0.00185     0.00498
  
  S  O  33   0.00057    -0.00023     0.00041
 PX  O  33  -0.00094     0.00043    -0.00073
 PY  O  33  -0.00008     0.00000     0.00003
 PZ  O  33  -0.00066     0.00029    -0.00049
  
  S  H  34  -0.00099     0.00045    -0.00082
  
  S  H  35  -0.00284     0.00103    -0.00164
  
  S  O  36   0.00042    -0.00033     0.00108
 PX  O  36   0.00016    -0.00019     0.00111
 PY  O  36   0.00059    -0.00044     0.00137
 PZ  O  36   0.00046    -0.00024    -0.00006
  
  S  H  37  -0.00127     0.00110    -0.00455
  
  S  H  38  -0.00072     0.00076    -0.00308
  
  S  O  39   0.00006    -0.00007    -0.00009
 PX  O  39   0.00000    -0.00000     0.00001
 PY  O  39   0.00009    -0.00011    -0.00013
 PZ  O  39   0.00008    -0.00010    -0.00009
  
  S  H  40  -0.00019     0.00022     0.00035
  
  S  H  41  -0.00010     0.00011     0.00015
  
  S  O  42   0.00937     0.00428    -0.00065
 PX  O  42   0.00556     0.00228    -0.00011
 PY  O  42   0.01491     0.00786    -0.00146
 PZ  O  42   0.01067     0.00609    -0.00128
  
  S  H  43  -0.00961    -0.00250     0.00032
  
  S  H  44  -0.04959    -0.02206     0.00379
  
  S  O  45  -0.00037    -0.00096    -0.00153
 PX  O  45  -0.00076     0.00063    -0.00152
 PY  O  45   0.00041     0.00165     0.00203
 PZ  O  45  -0.00009    -0.00054    -0.00036
  
  S  H  46   0.00162     0.00100     0.00599
  
  S  H  47   0.00031     0.00548     0.00336
  
  S  O  48   0.00000    -0.00007    -0.00009
 PX  O  48  -0.00001    -0.00014    -0.00020
 PY  O  48   0.00001     0.00008     0.00011
 PZ  O  48  -0.00000     0.00007     0.00010
  
  S  H  49  -0.00001     0.00005     0.00006
  
  S  H  50  -0.00003     0.00028     0.00035
  
  S  O  51   0.00007    -0.00008    -0.00004
 PX  O  51   0.00000     0.00000     0.00007
 PY  O  51   0.00016    -0.00019    -0.00009
 PZ  O  51   0.00003    -0.00003    -0.00003
  
  S  H  52  -0.00014     0.00016    -0.00006
  
  S  H  53  -0.00017     0.00017     0.00020
  
  S  O  54  -0.00002     0.00002     0.00004
 PX  O  54   0.00001    -0.00001    -0.00002
 PY  O  54  -0.00004     0.00005     0.00007
 PZ  O  54  -0.00004     0.00005     0.00007
  
  S  H  55   0.00002    -0.00002    -0.00005
  
  S  H  56   0.00009    -0.00009    -0.00017
  
  S  O  57   0.00004    -0.00006    -0.00004
 PX  O  57   0.00008    -0.00013    -0.00009
 PY  O  57   0.00000    -0.00000    -0.00001
 PZ  O  57  -0.00007     0.00010     0.00007
  
  S  H  58  -0.00013     0.00023     0.00017
  
  S  H  59  -0.00003     0.00007     0.00005
  
  S  O  60  -0.00025     0.00013    -0.00018
 PX  O  60  -0.00011     0.00000     0.00004
 PY  O  60  -0.00018     0.00009    -0.00017
 PZ  O  60   0.00025    -0.00015     0.00017
  
  S  H  61   0.00070    -0.00035     0.00045
  
  S  H  62   0.00065    -0.00030     0.00036
  
  S  O  63  -0.00027    -0.00061     0.00021
 PX  O  63  -0.00022    -0.00025     0.00015
 PY  O  63  -0.00053    -0.00101     0.00038
 PZ  O  63   0.00017     0.00042    -0.00012
  
  S  H  64   0.00077     0.00266    -0.00074
  
  S  H  65   0.00054     0.00110    -0.00043
  
  S  O  66  -0.00043    -0.00015     0.00013
 PX  O  66   0.00051     0.00021    -0.00018
 PY  O  66  -0.00063    -0.00028     0.00022
 PZ  O  66   0.00028     0.00014    -0.00010
  
  S  H  67   0.00246     0.00068    -0.00066
  
  S  H  68   0.00031     0.00008    -0.00011
  
  S  H  69  -0.00047     0.00054     0.00078
  
  S  H  70  -0.00164     0.00221     0.00264

          BONDING CONTRIBUTION OF EACH M.O.

  1.7587  1.6982  1.9120  1.8426  1.7618  1.7129  1.7288  0.0304  1.7163  1.7129
  1.7099  1.7021  0.0002  0.0075  1.6864  1.6103  1.6459  1.6851  0.0353  0.0612
  1.6496  1.7199  1.7079  1.6853  1.6912  1.9982  1.6352  1.9993  0.0164  1.6517
  0.0001  0.0143  1.5899  0.0115  1.6160  1.6179  1.6407  1.9980  1.7331  1.6197
  1.7632  1.9933  0.0000  0.0042  1.6781  1.9983  0.0038  1.6594  1.5849  1.6874
  1.9916  1.6276  1.6732  0.0006  1.8934  0.0010  0.0006  0.0004  0.0049  1.6770
  1.9946  1.9403  1.9372  1.9527  1.9489  1.9509  1.9940  1.9515  1.9533  1.9564
  1.9536  1.1777  0.0043  0.0021  0.0644  0.1004  0.0036  0.0016  0.0000  0.0000
  0.0038  0.0127  0.3259  0.0045  0.0007  0.0001  0.0006  0.9197  0.0008  0.0084
  1.9727  1.9920  2.0266 -1.9949 -2.0041 -2.0266 -1.9223 -2.0019 -1.7372 -1.7224
 -1.6858 -1.7117 -1.8179 -1.8515 -1.7023 -1.7360 -1.7268 -1.8450 -1.7782 -1.9037
 -1.8219 -1.7919 -1.8381 -1.8259 -1.8567 -1.8155 -1.8616 -1.8005 -1.7408 -1.6907
 -1.8192 -2.0036 -1.9495 -1.7800 -1.8354 -1.7527 -1.9425 -1.9224 -1.6958 -1.9385
 -1.9505 -1.6799 -1.9417 -1.9380 -1.6917 -1.9011 -1.6885 -1.7943 -1.7185 -1.7501
 -1.7791 -1.6558 -1.6814 -1.8998 -1.8532 -1.6915 -1.6976 -1.7228 -1.7006 -1.7067
 -1.7193

           DATA FOR GRAPH WRITTEN TO DISK

 **********************
 *                    *
 * JOB ENDED NORMALLY *
 *                    *
 **********************



 TOTAL JOB TIME:             1.11 SECONDS

 == MOPAC DONE ==
