 *******************************************************************************
 ** Site#: 34139        For non-commercial use only    Version 20.070L 64BITS **
 *******************************************************************************
 ** Cite this program as: MOPAC2016, Version: 20.070L, James J. P. Stewart,   **
 ** Stewart Computational Chemistry, web: HTTP://OpenMOPAC.net. Days left: 322**
 *******************************************************************************
 **                                                                           **
 **                                MOPAC2016                                  **
 **                                                                           **
 *******************************************************************************

                              PM7 CALCULATION RESULTS

 *******************************************************************************
 *  CALCULATION DONE:                                Thu Apr 23 14:14:16 2020  *
 *  PM7        - The PM7 Hamiltonian to be used
 *  QMMM       - Generate energies and gradients for use in MM codes
 *  DIPOLE     - PRINT DIPOLE INSTEAD OF ENERGY IN TRAJECTORIES
 *  GEO-OK     - OVERRIDE INTERATOMIC DISTANCE AND OTHER SAFETY CHECKS
 *
 *
 *
 *                 CHARGE ON SYSTEM = 0
 *
 *
 *
 *  LET        - OVERRIDE SOME SAFETY CHECKS
 *  XYZ        - CARTESIAN COORDINATE SYSTEM TO BE USED
 *  FORCE      - FORCE CALCULATION SPECIFIED
 *  1SCF       - DO 1 SCF AND THEN STOP 
 *  T=         - A TIME OF      2.0 MINUTES REQUESTED
 *  DUMP=N     - RESTART FILE WRITTEN EVERY  7200.000 SECONDS
 *  CUTOFF=    - CUTOFF FOR NDDO AND DIPOLE INTERACTIONS =  9.00A
 *  AUX        - OUTPUT AUXILIARY INFORMATION
 *  GRADIENTS  - ALL GRADIENTS TO BE PRINTED
 *  VECTORS    - FINAL EIGENVECTORS TO BE PRINTED
 *  EIGEN      - CONVERT LMO's INTO EIGENVECTORS
 *  LARGE      - EXPANDED OUTPUT TO BE PRINTED
 *  AIGOUT     - IN ARC FILE, INCLUDE AB-INITIO GEOMETRY
 *  GRAPH      - GENERATE FILE FOR GRAPHICS
 *  LOCALIZE   - LOCALIZED ORBITALS TO BE PRINTED
 *  PI         - BONDS MATRIX, SPLIT INTO SIGMA-PI-DELL COMPONENTS, TO BE PRINTED
 *******************************************************************************
PM7 XYZ T=2M 1SCF LOCALIZE AIGOUT GRAPH GRAPHF LARGE DIPOLE PI FORCE CUTOFF=9.0 AUX LET GRAD QMMM GEO-OK EIGEN VECTORS CHARGE=0
 Test System

   ATOM   CHEMICAL          X               Y               Z
  NUMBER   SYMBOL      (ANGSTROMS)     (ANGSTROMS)     (ANGSTROMS)
 
     1       C         -3.53120900  *   0.44662000  *   0.64620800  *
     2       O         -3.81739400  *  -0.55451200  *   1.26454800  *
     3       N         -2.30413300  *   0.69263400  *   0.06794300  *
     4       H         -2.23959700  *   1.57797400  *  -0.48307300  *
     5       C         -1.03000800  *   0.04308300  *   0.27301600  *
     6       H         -0.91911400  *  -0.19630800  *   1.35797900  *
     7       C         -0.95282600  *  -1.15089400  *  -0.69712700  *
     8       H         -1.82248200  *  -1.82484900  *  -0.52222000  *
     9       H         -1.01226700  *  -0.85587900  *  -1.80907600  *
    10       C          0.23459200  *  -2.07476000  *  -0.58267500  *
    11       C          1.20888200  *  -2.20432700  *  -1.58325400  *
    12       H          1.09314300  *  -1.71182300  *  -2.54428300  *
    13       C          2.33105100  *  -3.00076900  *  -1.35747300  *
    14       H          3.16314600  *  -2.97107800  *  -2.09909200  *
    15       C          2.41307100  *  -3.79834100  *  -0.22767000  *
    16       H          3.34835900  *  -4.34551600  *  -0.09367700  *
    17       C          0.41477900  *  -2.78375400  *   0.63531000  *
    18       H         -0.29953100  *  -2.68675900  *   1.48640200  *
    19       C          1.47074100  *  -3.68396200  *   0.81857200  *
    20       H          1.54881800  *  -4.36965900  *   1.64209600  *
    21       O          4.24358400  *  -6.60599100  *  -1.28076600  *
    22       H          5.08903700  *  -6.24371100  *  -0.87827800  *
    23       H          4.48102100  *  -7.58257100  *  -1.42911400  *
    24       O         -3.32146900  *  -3.51066600  *   1.48420500  *
    25       H         -3.23386800  *  -3.54700400  *   0.50717500  *
    26       H         -3.81068200  *  -2.61587200  *   1.60561100  *
    27       O         -0.47348300  *  -5.68727800  *   0.40070500  *
    28       H         -0.86860500  *  -6.38989400  *   0.97764200  *
    29       H         -0.94844200  *  -4.92246900  *   0.69151500  *
    30       O         -2.01994100  *   0.38867200  *  -3.77330300  *
    31       H         -1.40433000  *   1.13477300  *  -3.52017500  *
    32       H         -2.44853000  *   0.71840400  *  -4.66477400  *
    33       O         -5.81136000  *  -1.89184800  *   2.24181300  *
    34       H         -6.47808200  *  -2.54260000  *   2.56414300  *
    35       H         -5.86635000  *  -1.17122100  *   2.83882100  *
    36       O          0.94338600  *  -3.16545400  *   4.61669500  *
    37       H          0.42723500  *  -3.46632100  *   3.84319100  *
    38       H          0.27672800  *  -2.90402400  *   5.31944000  *
    39       O         -2.00304200  *   3.65908700  *  -2.31308200  *
    40       H         -2.63805700  *   3.54946300  *  -2.96260400  *
    41       H         -2.43240800  *   3.55279700  *  -1.37606500  *
    42       O         -0.40847400  *   0.52226900  *   3.46313500  *
    43       H         -0.62999200  *   1.17936600  *   4.13142600  *
    44       H          0.48616500  *   0.11102500  *   3.68267400  *
    45       O         -1.28741500  *  -3.63009000  *   3.20818300  *
    46       H         -1.95112300  *  -3.92224700  *   2.53202800  *
    47       H         -1.67257300  *  -2.64290600  *   3.37787100  *
    48       O         -1.76404100  *  -2.61985300  *  -2.75310100  *
    49       H         -1.45116200  *  -2.55435100  *  -3.66024800  *
    50       H         -2.44450200  *  -1.81240500  *  -2.94516500  *
    51       O         -2.34029000  *  -1.20251700  *   3.46224800  *
    52       H         -2.88209700  *  -1.02743500  *   2.61992800  *
    53       H         -1.62434500  *  -0.50497700  *   3.45163400  *
    54       O         -0.71212700  *   4.41980500  *   1.06612900  *
    55       H         -1.69637400  *   4.27076200  *   1.28810100  *
    56       H         -0.45409600  *   4.07181700  *   0.26216800  *
    57       H         -4.33238900  *   1.17418900  *   0.51638500  *
    58       H         -0.19324200  *   0.70446400  *   0.04829800  *
 


          CARTESIAN COORDINATES 

    NO.       ATOM           X           Y           Z

     1         C         -3.5312      0.4466      0.6462
     2         O         -3.8174     -0.5545      1.2645
     3         N         -2.3041      0.6926      0.0679
     4         H         -2.2396      1.5780     -0.4831
     5         C         -1.0300      0.0431      0.2730
     6         H         -0.9191     -0.1963      1.3580
     7         C         -0.9528     -1.1509     -0.6971
     8         H         -1.8225     -1.8248     -0.5222
     9         H         -1.0123     -0.8559     -1.8091
    10         C          0.2346     -2.0748     -0.5827
    11         C          1.2089     -2.2043     -1.5833
    12         H          1.0931     -1.7118     -2.5443
    13         C          2.3311     -3.0008     -1.3575
    14         H          3.1631     -2.9711     -2.0991
    15         C          2.4131     -3.7983     -0.2277
    16         H          3.3484     -4.3455     -0.0937
    17         C          0.4148     -2.7838      0.6353
    18         H         -0.2995     -2.6868      1.4864
    19         C          1.4707     -3.6840      0.8186
    20         H          1.5488     -4.3697      1.6421
    21         O          4.2436     -6.6060     -1.2808
    22         H          5.0890     -6.2437     -0.8783
    23         H          4.4810     -7.5826     -1.4291
    24         O         -3.3215     -3.5107      1.4842
    25         H         -3.2339     -3.5470      0.5072
    26         H         -3.8107     -2.6159      1.6056
    27         O         -0.4735     -5.6873      0.4007
    28         H         -0.8686     -6.3899      0.9776
    29         H         -0.9484     -4.9225      0.6915
    30         O         -2.0199      0.3887     -3.7733
    31         H         -1.4043      1.1348     -3.5202
    32         H         -2.4485      0.7184     -4.6648
    33         O         -5.8114     -1.8918      2.2418
    34         H         -6.4781     -2.5426      2.5641
    35         H         -5.8663     -1.1712      2.8388
    36         O          0.9434     -3.1655      4.6167
    37         H          0.4272     -3.4663      3.8432
    38         H          0.2767     -2.9040      5.3194
    39         O         -2.0030      3.6591     -2.3131
    40         H         -2.6381      3.5495     -2.9626
    41         H         -2.4324      3.5528     -1.3761
    42         O         -0.4085      0.5223      3.4631
    43         H         -0.6300      1.1794      4.1314
    44         H          0.4862      0.1110      3.6827
    45         O         -1.2874     -3.6301      3.2082
    46         H         -1.9511     -3.9222      2.5320
    47         H         -1.6726     -2.6429      3.3779
    48         O         -1.7640     -2.6199     -2.7531
    49         H         -1.4512     -2.5544     -3.6602
    50         H         -2.4445     -1.8124     -2.9452
    51         O         -2.3403     -1.2025      3.4622
    52         H         -2.8821     -1.0274      2.6199
    53         H         -1.6243     -0.5050      3.4516
    54         O         -0.7121      4.4198      1.0661
    55         H         -1.6964      4.2708      1.2881
    56         H         -0.4541      4.0718      0.2622
    57         H         -4.3324      1.1742      0.5164
    58         H         -0.1932      0.7045      0.0483

 General Reference for PM7:
 "Optimization of Parameters for Semiempirical Methods VI: More Modifications to the 
 NDDO Approximations and Re-optimization of Parameters", J. J. P. Stewart, J. Mol. Mod., 1:32, 19 (2013)
 http://www.springerlink.com/openurl.asp?genre=article&id=doi:10.1007/s00894-012-1667-x

           Empirical Formula: C9 H35 N O13  =    58 atoms



      MOLECULAR POINT GROUP   :   C1  


      RHF CALCULATION, NO. OF DOUBLY OCCUPIED LEVELS = 77


 -------------------------------------------------------------------------------
 PM7 XYZ T=2M 1SCF LOCALIZE AIGOUT GRAPH GRAPHF LARGE DIPOLE PI FORCE CUTOFF=9.0 AUX LET GRAD QMMM GEO-OK EIGEN VECTORS CHARGE=0
 Test System



     1SCF WAS SPECIFIED, SO BFGS WAS NOT USED                 
     SCF FIELD WAS ACHIEVED                                   


                              PM7 CALCULATION
                                                       MOPAC2016 (Version: 20.070L)
                                                       Thu Apr 23 14:14:16 2020
                                                       No. of days remaining = 322




          FINAL HEAT OF FORMATION =       -955.55876 KCAL/MOL =   -3998.05784 KJ/MOL


          TOTAL ENERGY            =      -5616.11844 EV
          ELECTRONIC ENERGY       =     -40579.11172 EV  POINT GROUP:     C1  
          CORE-CORE REPULSION     =      34962.99328 EV
          COSMO AREA              =        434.43 SQUARE ANGSTROMS
          COSMO VOLUME            =        542.59 CUBIC ANGSTROMS

          GRADIENT NORM           =        246.20513 = 32.32832 PER ATOM
          IONIZATION POTENTIAL    =          7.280836 EV
          HOMO LUMO ENERGIES (EV) =         -7.281  2.358
          NO. OF FILLED LEVELS    =         77
          MOLECULAR WEIGHT        =        365.3744

          MOLECULAR DIMENSIONS (Angstroms)

            Atom       Atom       Distance
            H    55    H    23    13.63983
            H    38    H    32    10.70074
            H    34    H    22     8.64143


          SCF CALCULATIONS        =          1
 
          WALL-CLOCK TIME         =          0.141 SECONDS
          COMPUTATION TIME        =          0.132 SECONDS

          LARGEST ATOMIC GRADIENTS

          Atom     Label                     Cartesian Gradients           Cartesian Coordinates       |Gradient|
                                           X          Y          Z        X          Y          Z

            48       O                  51.713    -52.277     31.817   -1.76404   -2.61985   -2.75310     80.121
             3       N                  35.515    -51.768      2.576   -2.30413    0.69263    0.06794     62.832
            39       O                   6.691     11.385    -58.587   -2.00304    3.65909   -2.31308     60.057
            50       H                 -30.196     36.922    -26.928   -2.44450   -1.81241   -2.94517     54.774
            30       O                   9.817    -35.985     36.825   -2.01994    0.38867   -3.77330     52.415
            32       H                 -21.439     17.773    -41.519   -2.44853    0.71840   -4.66477     49.993
            21       O                 -40.349     28.143     -6.928    4.24358   -6.60599   -1.28077     49.680
            41       H                 -18.009    -12.421     43.664   -2.43241    3.55280   -1.37607     48.838
            54       O                  40.483     -1.496    -25.640   -0.71213    4.41981    1.06613     47.943
            19       C                   3.048     -5.169     43.928    1.47074   -3.68396    0.81857     44.336



       FINAL  POINT  AND  DERIVATIVES

   PARAMETER     ATOM    TYPE            VALUE        GRADIENT
      1          1  C    CARTESIAN X    -3.531209    -26.685711  KCAL/ANGSTROM
      2          1  C    CARTESIAN Y     0.446620     -0.718755  KCAL/ANGSTROM
      3          1  C    CARTESIAN Z     0.646208     18.599734  KCAL/ANGSTROM
      4          2  O    CARTESIAN X    -3.817394    -14.647154  KCAL/ANGSTROM
      5          2  O    CARTESIAN Y    -0.554512     21.362607  KCAL/ANGSTROM
      6          2  O    CARTESIAN Z     1.264548    -28.883889  KCAL/ANGSTROM
      7          3  N    CARTESIAN X    -2.304133     35.515032  KCAL/ANGSTROM
      8          3  N    CARTESIAN Y     0.692634    -51.767710  KCAL/ANGSTROM
      9          3  N    CARTESIAN Z     0.067943      2.576336  KCAL/ANGSTROM
     10          4  H    CARTESIAN X    -2.239597     -3.897159  KCAL/ANGSTROM
     11          4  H    CARTESIAN Y     1.577974     17.612083  KCAL/ANGSTROM
     12          4  H    CARTESIAN Z    -0.483073     -2.686853  KCAL/ANGSTROM
     13          5  C    CARTESIAN X    -1.030008      0.983385  KCAL/ANGSTROM
     14          5  C    CARTESIAN Y     0.043083     26.470976  KCAL/ANGSTROM
     15          5  C    CARTESIAN Z     0.273016      2.824500  KCAL/ANGSTROM
     16          6  H    CARTESIAN X    -0.919114     -2.474749  KCAL/ANGSTROM
     17          6  H    CARTESIAN Y    -0.196308     13.808866  KCAL/ANGSTROM
     18          6  H    CARTESIAN Z     1.357979      3.020580  KCAL/ANGSTROM
     19          7  C    CARTESIAN X    -0.952826     -6.342120  KCAL/ANGSTROM
     20          7  C    CARTESIAN Y    -1.150894     22.566655  KCAL/ANGSTROM
     21          7  C    CARTESIAN Z    -0.697127     17.343279  KCAL/ANGSTROM
     22          8  H    CARTESIAN X    -1.822482      6.525225  KCAL/ANGSTROM
     23          8  H    CARTESIAN Y    -1.824849     -3.860251  KCAL/ANGSTROM
     24          8  H    CARTESIAN Z    -0.522220      2.817398  KCAL/ANGSTROM
     25          9  H    CARTESIAN X    -1.012267      2.165056  KCAL/ANGSTROM
     26          9  H    CARTESIAN Y    -0.855879     -5.540425  KCAL/ANGSTROM
     27          9  H    CARTESIAN Z    -1.809076    -26.876989  KCAL/ANGSTROM
     28         10  C    CARTESIAN X     0.234592    -20.479691  KCAL/ANGSTROM
     29         10  C    CARTESIAN Y    -2.074760     -3.686630  KCAL/ANGSTROM
     30         10  C    CARTESIAN Z    -0.582675    -31.902409  KCAL/ANGSTROM
     31         11  C    CARTESIAN X     1.208882     15.263131  KCAL/ANGSTROM
     32         11  C    CARTESIAN Y    -2.204327     -4.963700  KCAL/ANGSTROM
     33         11  C    CARTESIAN Z    -1.583254     -8.093424  KCAL/ANGSTROM
     34         12  H    CARTESIAN X     1.093143      1.021346  KCAL/ANGSTROM
     35         12  H    CARTESIAN Y    -1.711823     -2.132032  KCAL/ANGSTROM
     36         12  H    CARTESIAN Z    -2.544283     -3.961345  KCAL/ANGSTROM
     37         13  C    CARTESIAN X     2.331051     -3.950239  KCAL/ANGSTROM
     38         13  C    CARTESIAN Y    -3.000769     -0.454937  KCAL/ANGSTROM
     39         13  C    CARTESIAN Z    -1.357473     13.543557  KCAL/ANGSTROM
     40         14  H    CARTESIAN X     3.163146     13.409041  KCAL/ANGSTROM
     41         14  H    CARTESIAN Y    -2.971078      5.288540  KCAL/ANGSTROM
     42         14  H    CARTESIAN Z    -2.099092     -9.126818  KCAL/ANGSTROM
     43         15  C    CARTESIAN X     2.413071    -14.337573  KCAL/ANGSTROM
     44         15  C    CARTESIAN Y    -3.798341    -21.019083  KCAL/ANGSTROM
     45         15  C    CARTESIAN Z    -0.227670    -18.410642  KCAL/ANGSTROM
     46         16  H    CARTESIAN X     3.348359      6.962525  KCAL/ANGSTROM
     47         16  H    CARTESIAN Y    -4.345516     11.850995  KCAL/ANGSTROM
     48         16  H    CARTESIAN Z    -0.093677     -1.655903  KCAL/ANGSTROM
     49         17  C    CARTESIAN X     0.414779      1.542500  KCAL/ANGSTROM
     50         17  C    CARTESIAN Y    -2.783754      5.014722  KCAL/ANGSTROM
     51         17  C    CARTESIAN Z     0.635310     -0.276820  KCAL/ANGSTROM
     52         18  H    CARTESIAN X    -0.299531     -4.928145  KCAL/ANGSTROM
     53         18  H    CARTESIAN Y    -2.686759     -4.097183  KCAL/ANGSTROM
     54         18  H    CARTESIAN Z     1.486402     15.228846  KCAL/ANGSTROM
     55         19  C    CARTESIAN X     1.470741      3.047546  KCAL/ANGSTROM
     56         19  C    CARTESIAN Y    -3.683962     -5.169341  KCAL/ANGSTROM
     57         19  C    CARTESIAN Z     0.818572     43.927954  KCAL/ANGSTROM
     58         20  H    CARTESIAN X     1.548818      2.520619  KCAL/ANGSTROM
     59         20  H    CARTESIAN Y    -4.369659     -1.461722  KCAL/ANGSTROM
     60         20  H    CARTESIAN Z     1.642096    -12.521228  KCAL/ANGSTROM
     61         21  O    CARTESIAN X     4.243584    -40.349028  KCAL/ANGSTROM
     62         21  O    CARTESIAN Y    -6.605991     28.143172  KCAL/ANGSTROM
     63         21  O    CARTESIAN Z    -1.280766     -6.928426  KCAL/ANGSTROM
     64         22  H    CARTESIAN X     5.089037     25.316617  KCAL/ANGSTROM
     65         22  H    CARTESIAN Y    -6.243711      5.769726  KCAL/ANGSTROM
     66         22  H    CARTESIAN Z    -0.878278     10.471102  KCAL/ANGSTROM
     67         23  H    CARTESIAN X     4.481021     13.848745  KCAL/ANGSTROM
     68         23  H    CARTESIAN Y    -7.582571    -34.252272  KCAL/ANGSTROM
     69         23  H    CARTESIAN Z    -1.429114     -3.751349  KCAL/ANGSTROM
     70         24  O    CARTESIAN X    -3.321469     17.719544  KCAL/ANGSTROM
     71         24  O    CARTESIAN Y    -3.510666    -25.984993  KCAL/ANGSTROM
     72         24  O    CARTESIAN Z     1.484205     21.985156  KCAL/ANGSTROM
     73         25  H    CARTESIAN X    -3.233868     -0.908166  KCAL/ANGSTROM
     74         25  H    CARTESIAN Y    -3.547004      2.133363  KCAL/ANGSTROM
     75         25  H    CARTESIAN Z     0.507175    -11.671975  KCAL/ANGSTROM
     76         26  H    CARTESIAN X    -3.810682    -13.197970  KCAL/ANGSTROM
     77         26  H    CARTESIAN Y    -2.615872     27.347733  KCAL/ANGSTROM
     78         26  H    CARTESIAN Z     1.605611     -4.686144  KCAL/ANGSTROM
     79         27  O    CARTESIAN X    -0.473483     14.203139  KCAL/ANGSTROM
     80         27  O    CARTESIAN Y    -5.687278     17.521348  KCAL/ANGSTROM
     81         27  O    CARTESIAN Z     0.400705    -18.106999  KCAL/ANGSTROM
     82         28  H    CARTESIAN X    -0.868605    -11.132025  KCAL/ANGSTROM
     83         28  H    CARTESIAN Y    -6.389894     -4.144505  KCAL/ANGSTROM
     84         28  H    CARTESIAN Z     0.977642     11.465177  KCAL/ANGSTROM
     85         29  H    CARTESIAN X    -0.948442     -3.064081  KCAL/ANGSTROM
     86         29  H    CARTESIAN Y    -4.922469    -13.244155  KCAL/ANGSTROM
     87         29  H    CARTESIAN Z     0.691515      4.417590  KCAL/ANGSTROM
     88         30  O    CARTESIAN X    -2.019941      9.817343  KCAL/ANGSTROM
     89         30  O    CARTESIAN Y     0.388672    -35.985000  KCAL/ANGSTROM
     90         30  O    CARTESIAN Z    -3.773303     36.824586  KCAL/ANGSTROM
     91         31  H    CARTESIAN X    -1.404330     13.282569  KCAL/ANGSTROM
     92         31  H    CARTESIAN Y     1.134773     19.202536  KCAL/ANGSTROM
     93         31  H    CARTESIAN Z    -3.520175      4.080210  KCAL/ANGSTROM
     94         32  H    CARTESIAN X    -2.448530    -21.438719  KCAL/ANGSTROM
     95         32  H    CARTESIAN Y     0.718404     17.772760  KCAL/ANGSTROM
     96         32  H    CARTESIAN Z    -4.664774    -41.519236  KCAL/ANGSTROM
     97         33  O    CARTESIAN X    -5.811360     20.652888  KCAL/ANGSTROM
     98         33  O    CARTESIAN Y    -1.891848     18.682857  KCAL/ANGSTROM
     99         33  O    CARTESIAN Z     2.241813     -2.944554  KCAL/ANGSTROM
    100         34  H    CARTESIAN X    -6.478082    -14.200085  KCAL/ANGSTROM
    101         34  H    CARTESIAN Y    -2.542600     -6.952371  KCAL/ANGSTROM
    102         34  H    CARTESIAN Z     2.564143      7.690923  KCAL/ANGSTROM
    103         35  H    CARTESIAN X    -5.866350     -6.627377  KCAL/ANGSTROM
    104         35  H    CARTESIAN Y    -1.171221     -9.091253  KCAL/ANGSTROM
    105         35  H    CARTESIAN Z     2.838821     -3.285136  KCAL/ANGSTROM
    106         36  O    CARTESIAN X     0.943386     14.143986  KCAL/ANGSTROM
    107         36  O    CARTESIAN Y    -3.165454     -9.407065  KCAL/ANGSTROM
    108         36  O    CARTESIAN Z     4.616695    -11.630459  KCAL/ANGSTROM
    109         37  H    CARTESIAN X     0.427235      0.121284  KCAL/ANGSTROM
    110         37  H    CARTESIAN Y    -3.466321     -2.983381  KCAL/ANGSTROM
    111         37  H    CARTESIAN Z     3.843191    -12.436993  KCAL/ANGSTROM
    112         38  H    CARTESIAN X     0.276728    -15.215010  KCAL/ANGSTROM
    113         38  H    CARTESIAN Y    -2.904024     11.812480  KCAL/ANGSTROM
    114         38  H    CARTESIAN Z     5.319440     23.497978  KCAL/ANGSTROM
    115         39  O    CARTESIAN X    -2.003042      6.691143  KCAL/ANGSTROM
    116         39  O    CARTESIAN Y     3.659087     11.385009  KCAL/ANGSTROM
    117         39  O    CARTESIAN Z    -2.313082    -58.587159  KCAL/ANGSTROM
    118         40  H    CARTESIAN X    -2.638057     13.546406  KCAL/ANGSTROM
    119         40  H    CARTESIAN Y     3.549463      0.404930  KCAL/ANGSTROM
    120         40  H    CARTESIAN Z    -2.962604     15.015066  KCAL/ANGSTROM
    121         41  H    CARTESIAN X    -2.432408    -18.008763  KCAL/ANGSTROM
    122         41  H    CARTESIAN Y     3.552797    -12.421357  KCAL/ANGSTROM
    123         41  H    CARTESIAN Z    -1.376065     43.663568  KCAL/ANGSTROM
    124         42  O    CARTESIAN X    -0.408474    -18.404343  KCAL/ANGSTROM
    125         42  O    CARTESIAN Y     0.522269     -3.205773  KCAL/ANGSTROM
    126         42  O    CARTESIAN Z     3.463135     -5.815673  KCAL/ANGSTROM
    127         43  H    CARTESIAN X    -0.629992     -3.568300  KCAL/ANGSTROM
    128         43  H    CARTESIAN Y     1.179366      4.617557  KCAL/ANGSTROM
    129         43  H    CARTESIAN Z     4.131426      2.822250  KCAL/ANGSTROM
    130         44  H    CARTESIAN X     0.486165     19.358468  KCAL/ANGSTROM
    131         44  H    CARTESIAN Y     0.111025     -4.816558  KCAL/ANGSTROM
    132         44  H    CARTESIAN Z     3.682674      3.714332  KCAL/ANGSTROM
    133         45  O    CARTESIAN X    -1.287415     24.686825  KCAL/ANGSTROM
    134         45  O    CARTESIAN Y    -3.630090    -30.580617  KCAL/ANGSTROM
    135         45  O    CARTESIAN Z     3.208183      4.229328  KCAL/ANGSTROM
    136         46  H    CARTESIAN X    -1.951123    -10.536970  KCAL/ANGSTROM
    137         46  H    CARTESIAN Y    -3.922247     -8.793665  KCAL/ANGSTROM
    138         46  H    CARTESIAN Z     2.532028    -15.235144  KCAL/ANGSTROM
    139         47  H    CARTESIAN X    -1.672573    -12.995402  KCAL/ANGSTROM
    140         47  H    CARTESIAN Y    -2.642906     39.910326  KCAL/ANGSTROM
    141         47  H    CARTESIAN Z     3.377871      7.517091  KCAL/ANGSTROM
    142         48  O    CARTESIAN X    -1.764041     51.713345  KCAL/ANGSTROM
    143         48  O    CARTESIAN Y    -2.619853    -52.276527  KCAL/ANGSTROM
    144         48  O    CARTESIAN Z    -2.753101     31.816964  KCAL/ANGSTROM
    145         49  H    CARTESIAN X    -1.451162    -17.813364  KCAL/ANGSTROM
    146         49  H    CARTESIAN Y    -2.554351     17.161933  KCAL/ANGSTROM
    147         49  H    CARTESIAN Z    -3.660248      0.324963  KCAL/ANGSTROM
    148         50  H    CARTESIAN X    -2.444502    -30.196408  KCAL/ANGSTROM
    149         50  H    CARTESIAN Y    -1.812405     36.922312  KCAL/ANGSTROM
    150         50  H    CARTESIAN Z    -2.945165    -26.928230  KCAL/ANGSTROM
    151         51  O    CARTESIAN X    -2.340290     18.213821  KCAL/ANGSTROM
    152         51  O    CARTESIAN Y    -1.202517    -17.833556  KCAL/ANGSTROM
    153         51  O    CARTESIAN Z     3.462248     31.355739  KCAL/ANGSTROM
    154         52  H    CARTESIAN X    -2.882097    -12.055119  KCAL/ANGSTROM
    155         52  H    CARTESIAN Y    -1.027435      9.185236  KCAL/ANGSTROM
    156         52  H    CARTESIAN Z     2.619928    -21.889736  KCAL/ANGSTROM
    157         53  H    CARTESIAN X    -1.624345      2.418716  KCAL/ANGSTROM
    158         53  H    CARTESIAN Y    -0.504977      7.976100  KCAL/ANGSTROM
    159         53  H    CARTESIAN Z     3.451634     -0.842075  KCAL/ANGSTROM
    160         54  O    CARTESIAN X    -0.712127     40.483466  KCAL/ANGSTROM
    161         54  O    CARTESIAN Y     4.419805     -1.496345  KCAL/ANGSTROM
    162         54  O    CARTESIAN Z     1.066129    -25.639671  KCAL/ANGSTROM
    163         55  H    CARTESIAN X    -1.696374    -39.961782  KCAL/ANGSTROM
    164         55  H    CARTESIAN Y     4.270762     -5.218827  KCAL/ANGSTROM
    165         55  H    CARTESIAN Z     1.288101     10.309854  KCAL/ANGSTROM
    166         56  H    CARTESIAN X    -0.454096     -1.318490  KCAL/ANGSTROM
    167         56  H    CARTESIAN Y     4.071817      6.512392  KCAL/ANGSTROM
    168         56  H    CARTESIAN Z     0.262168     14.155443  KCAL/ANGSTROM
    169         57  H    CARTESIAN X    -4.332389      4.377357  KCAL/ANGSTROM
    170         57  H    CARTESIAN Y     1.174189     -9.801500  KCAL/ANGSTROM
    171         57  H    CARTESIAN Z     0.516385      8.353514  KCAL/ANGSTROM
    172         58  H    CARTESIAN X    -0.193242    -10.814328  KCAL/ANGSTROM
    173         58  H    CARTESIAN Y     0.704464    -13.074420  KCAL/ANGSTROM
    174         58  H    CARTESIAN Z     0.048298      2.704858  KCAL/ANGSTROM




   ATOM   CHEMICAL          X               Y               Z
  NUMBER   SYMBOL      (ANGSTROMS)     (ANGSTROMS)     (ANGSTROMS)
 
     1       C         -3.53120900  *   0.44662000  *   0.64620800  *
     2       O         -3.81739400  *  -0.55451200  *   1.26454800  *
     3       N         -2.30413300  *   0.69263400  *   0.06794300  *
     4       H         -2.23959700  *   1.57797400  *  -0.48307300  *
     5       C         -1.03000800  *   0.04308300  *   0.27301600  *
     6       H         -0.91911400  *  -0.19630800  *   1.35797900  *
     7       C         -0.95282600  *  -1.15089400  *  -0.69712700  *
     8       H         -1.82248200  *  -1.82484900  *  -0.52222000  *
     9       H         -1.01226700  *  -0.85587900  *  -1.80907600  *
    10       C          0.23459200  *  -2.07476000  *  -0.58267500  *
    11       C          1.20888200  *  -2.20432700  *  -1.58325400  *
    12       H          1.09314300  *  -1.71182300  *  -2.54428300  *
    13       C          2.33105100  *  -3.00076900  *  -1.35747300  *
    14       H          3.16314600  *  -2.97107800  *  -2.09909200  *
    15       C          2.41307100  *  -3.79834100  *  -0.22767000  *
    16       H          3.34835900  *  -4.34551600  *  -0.09367700  *
    17       C          0.41477900  *  -2.78375400  *   0.63531000  *
    18       H         -0.29953100  *  -2.68675900  *   1.48640200  *
    19       C          1.47074100  *  -3.68396200  *   0.81857200  *
    20       H          1.54881800  *  -4.36965900  *   1.64209600  *
    21       O          4.24358400  *  -6.60599100  *  -1.28076600  *
    22       H          5.08903700  *  -6.24371100  *  -0.87827800  *
    23       H          4.48102100  *  -7.58257100  *  -1.42911400  *
    24       O         -3.32146900  *  -3.51066600  *   1.48420500  *
    25       H         -3.23386800  *  -3.54700400  *   0.50717500  *
    26       H         -3.81068200  *  -2.61587200  *   1.60561100  *
    27       O         -0.47348300  *  -5.68727800  *   0.40070500  *
    28       H         -0.86860500  *  -6.38989400  *   0.97764200  *
    29       H         -0.94844200  *  -4.92246900  *   0.69151500  *
    30       O         -2.01994100  *   0.38867200  *  -3.77330300  *
    31       H         -1.40433000  *   1.13477300  *  -3.52017500  *
    32       H         -2.44853000  *   0.71840400  *  -4.66477400  *
    33       O         -5.81136000  *  -1.89184800  *   2.24181300  *
    34       H         -6.47808200  *  -2.54260000  *   2.56414300  *
    35       H         -5.86635000  *  -1.17122100  *   2.83882100  *
    36       O          0.94338600  *  -3.16545400  *   4.61669500  *
    37       H          0.42723500  *  -3.46632100  *   3.84319100  *
    38       H          0.27672800  *  -2.90402400  *   5.31944000  *
    39       O         -2.00304200  *   3.65908700  *  -2.31308200  *
    40       H         -2.63805700  *   3.54946300  *  -2.96260400  *
    41       H         -2.43240800  *   3.55279700  *  -1.37606500  *
    42       O         -0.40847400  *   0.52226900  *   3.46313500  *
    43       H         -0.62999200  *   1.17936600  *   4.13142600  *
    44       H          0.48616500  *   0.11102500  *   3.68267400  *
    45       O         -1.28741500  *  -3.63009000  *   3.20818300  *
    46       H         -1.95112300  *  -3.92224700  *   2.53202800  *
    47       H         -1.67257300  *  -2.64290600  *   3.37787100  *
    48       O         -1.76404100  *  -2.61985300  *  -2.75310100  *
    49       H         -1.45116200  *  -2.55435100  *  -3.66024800  *
    50       H         -2.44450200  *  -1.81240500  *  -2.94516500  *
    51       O         -2.34029000  *  -1.20251700  *   3.46224800  *
    52       H         -2.88209700  *  -1.02743500  *   2.61992800  *
    53       H         -1.62434500  *  -0.50497700  *   3.45163400  *
    54       O         -0.71212700  *   4.41980500  *   1.06612900  *
    55       H         -1.69637400  *   4.27076200  *   1.28810100  *
    56       H         -0.45409600  *   4.07181700  *   0.26216800  *
    57       H         -4.33238900  *   1.17418900  *   0.51638500  *
    58       H         -0.19324200  *   0.70446400  *   0.04829800  *

                             CARTESIAN COORDINATES

   1    C       -3.531209000     0.446620000     0.646208000
   2    O       -3.817394000    -0.554512000     1.264548000
   3    N       -2.304133000     0.692634000     0.067943000
   4    H       -2.239597000     1.577974000    -0.483073000
   5    C       -1.030008000     0.043083000     0.273016000
   6    H       -0.919114000    -0.196308000     1.357979000
   7    C       -0.952826000    -1.150894000    -0.697127000
   8    H       -1.822482000    -1.824849000    -0.522220000
   9    H       -1.012267000    -0.855879000    -1.809076000
  10    C        0.234592000    -2.074760000    -0.582675000
  11    C        1.208882000    -2.204327000    -1.583254000
  12    H        1.093143000    -1.711823000    -2.544283000
  13    C        2.331051000    -3.000769000    -1.357473000
  14    H        3.163146000    -2.971078000    -2.099092000
  15    C        2.413071000    -3.798341000    -0.227670000
  16    H        3.348359000    -4.345516000    -0.093677000
  17    C        0.414779000    -2.783754000     0.635310000
  18    H       -0.299531000    -2.686759000     1.486402000
  19    C        1.470741000    -3.683962000     0.818572000
  20    H        1.548818000    -4.369659000     1.642096000
  21    O        4.243584000    -6.605991000    -1.280766000
  22    H        5.089037000    -6.243711000    -0.878278000
  23    H        4.481021000    -7.582571000    -1.429114000
  24    O       -3.321469000    -3.510666000     1.484205000
  25    H       -3.233868000    -3.547004000     0.507175000
  26    H       -3.810682000    -2.615872000     1.605611000
  27    O       -0.473483000    -5.687278000     0.400705000
  28    H       -0.868605000    -6.389894000     0.977642000
  29    H       -0.948442000    -4.922469000     0.691515000
  30    O       -2.019941000     0.388672000    -3.773303000
  31    H       -1.404330000     1.134773000    -3.520175000
  32    H       -2.448530000     0.718404000    -4.664774000
  33    O       -5.811360000    -1.891848000     2.241813000
  34    H       -6.478082000    -2.542600000     2.564143000
  35    H       -5.866350000    -1.171221000     2.838821000
  36    O        0.943386000    -3.165454000     4.616695000
  37    H        0.427235000    -3.466321000     3.843191000
  38    H        0.276728000    -2.904024000     5.319440000
  39    O       -2.003042000     3.659087000    -2.313082000
  40    H       -2.638057000     3.549463000    -2.962604000
  41    H       -2.432408000     3.552797000    -1.376065000
  42    O       -0.408474000     0.522269000     3.463135000
  43    H       -0.629992000     1.179366000     4.131426000
  44    H        0.486165000     0.111025000     3.682674000
  45    O       -1.287415000    -3.630090000     3.208183000
  46    H       -1.951123000    -3.922247000     2.532028000
  47    H       -1.672573000    -2.642906000     3.377871000
  48    O       -1.764041000    -2.619853000    -2.753101000
  49    H       -1.451162000    -2.554351000    -3.660248000
  50    H       -2.444502000    -1.812405000    -2.945165000
  51    O       -2.340290000    -1.202517000     3.462248000
  52    H       -2.882097000    -1.027435000     2.619928000
  53    H       -1.624345000    -0.504977000     3.451634000
  54    O       -0.712127000     4.419805000     1.066129000
  55    H       -1.696374000     4.270762000     1.288101000
  56    H       -0.454096000     4.071817000     0.262168000
  57    H       -4.332389000     1.174189000     0.516385000
  58    H       -0.193242000     0.704464000     0.048298000


           Empirical Formula: C9 H35 N O13  =    58 atoms



      MOLECULAR POINT GROUP   :   C1  


                EIGENVECTORS  


   Root No.      69        70        71        72        73        74        75        76

                69 A      70 A      71 A      72 A      73 A      74 A      75 A      76 A   

                -9.754    -9.566    -9.314    -9.239    -9.178    -9.119    -8.345    -7.582
  
  S   C    1    0.0152   -0.0065    0.0640    0.0579   -0.0008   -0.0028   -0.0042    0.0010
  Px  C    1   -0.0053   -0.0128   -0.0827   -0.0928    0.0017    0.0051    0.0841   -0.0012
  Py  C    1    0.0168   -0.0046    0.0799    0.0822   -0.0013   -0.0046    0.0546   -0.0013
  Pz  C    1   -0.0035    0.0047   -0.0156   -0.0022   -0.0002   -0.0007    0.1235   -0.0039
  S   O    2    0.0026   -0.0051    0.0070    0.0046    0.0000   -0.0002    0.0061   -0.0000
  Px  O    2    0.1203    0.0547    0.4902    0.4779   -0.0069   -0.0228   -0.1865    0.0018
  Py  O    2   -0.0383   -0.0127   -0.2345   -0.2761    0.0053    0.0162   -0.1472    0.0027
  Pz  O    2    0.0119   -0.0294   -0.0424   -0.1330    0.0044    0.0109   -0.3723    0.0089
  S   N    3   -0.0305   -0.0274   -0.0684   -0.0691    0.0011    0.0026   -0.0263    0.0018
  Px  N    3    0.0019   -0.0101    0.1655    0.2140   -0.0045   -0.0145    0.1351   -0.0005
  Py  N    3    0.0204    0.0744    0.0350    0.1159   -0.0038   -0.0081    0.4133   -0.0133
  Pz  N    3   -0.0460   -0.0223   -0.0792    0.0249   -0.0030   -0.0076    0.6137   -0.0100
  S   H    4    0.0285    0.0590    0.0563    0.0700   -0.0014   -0.0026    0.0093   -0.0052
  S   C    5    0.0159    0.0000    0.0182    0.0019    0.0002    0.0004   -0.0227   -0.0097
  Px  C    5   -0.0007   -0.0440   -0.1218   -0.1676    0.0034    0.0100   -0.0180    0.0047
  Py  C    5   -0.0067   -0.0862   -0.0318   -0.0636    0.0017    0.0038   -0.0745    0.0268
  Pz  C    5    0.0112    0.1501   -0.0113    0.0623   -0.0025   -0.0014   -0.1730   -0.0004
  S   H    6    0.0196    0.1365    0.0080    0.0486   -0.0013   -0.0000   -0.1577   -0.0062
  S   C    7   -0.0345   -0.0269   -0.0089    0.0375   -0.0017   -0.0063    0.0864   -0.0001
  Px  C    7   -0.1489   -0.1352    0.0553    0.1505   -0.0044   -0.0206   -0.0725   -0.0245
  Py  C    7    0.0351    0.2090    0.0066    0.0641   -0.0015    0.0009    0.1672   -0.0277
  Pz  C    7   -0.0145   -0.2371    0.0477   -0.0435    0.0016   -0.0027    0.1687   -0.0023
  S   H    8    0.0572   -0.0591   -0.0330   -0.1130    0.0029    0.0092    0.0331    0.0274
  S   H    9    0.0083    0.2284   -0.0457    0.0645   -0.0025    0.0001   -0.0506   -0.0033
  S   C   10   -0.0075   -0.0221    0.0056    0.0215   -0.0005   -0.0022   -0.0268    0.0134
  Px  C   10    0.1311    0.1470   -0.0060   -0.0756    0.0024    0.0142    0.1348    0.0572
  Py  C   10   -0.0535   -0.1385    0.0583    0.0499   -0.0016   -0.0077    0.0301    0.0532
  Pz  C   10   -0.0638    0.2333   -0.1675    0.1459   -0.0072   -0.0073    0.0111    0.0191
  S   C   11   -0.0109   -0.0219    0.0039   -0.0144    0.0005   -0.0016    0.0179   -0.0082
  Px  C   11   -0.1358   -0.0538   -0.0716    0.1267   -0.0065   -0.0195   -0.0500   -0.2219
  Py  C   11    0.1174    0.1585   -0.0493   -0.0314   -0.0009    0.0156    0.0411   -0.3593
  Pz  C   11    0.0648   -0.1437    0.1075   -0.0993    0.0041    0.0048    0.0397   -0.1524
  S   H   12    0.0038    0.1776   -0.0982    0.0457   -0.0027    0.0036    0.0009   -0.0116
  S   C   13    0.0118    0.0171    0.0109   -0.0081    0.0006    0.0044   -0.0069    0.0055
  Px  C   13    0.1973    0.1010    0.0249   -0.1230    0.0040    0.0237    0.0124   -0.1936
  Py  C   13   -0.0065   -0.1353    0.0146   -0.0198   -0.0008   -0.0061   -0.0775   -0.3554
  Pz  C   13   -0.0240    0.1942   -0.1274    0.0475   -0.0042    0.0044   -0.0529   -0.2503
  S   H   14    0.1437   -0.0377    0.0977   -0.1130    0.0055    0.0152    0.0361    0.0236
  S   C   15   -0.0017   -0.0258    0.0242   -0.0098    0.0008   -0.0047    0.0077   -0.0145
  Px  C   15   -0.1743   -0.1018   -0.1109    0.1117   -0.0066   -0.0328   -0.0839   -0.0146
  Py  C   15    0.1026    0.1926   -0.0603   -0.0555    0.0009    0.0227   -0.0826   -0.0136
  Pz  C   15    0.0979   -0.1521    0.1169   -0.1185    0.0055    0.0052   -0.0346   -0.0053
  S   H   16   -0.1481   -0.1795   -0.0227    0.0822   -0.0038   -0.0266   -0.0217   -0.0158
  S   C   17   -0.0124    0.0293    0.0237   -0.0158    0.0011    0.0002    0.0058   -0.0028
  Px  C   17   -0.1353   -0.1305   -0.1221    0.1566   -0.0079   -0.0249   -0.0213    0.3093
  Py  C   17    0.0757    0.2553   -0.0456   -0.0169    0.0015    0.0142    0.0266    0.4332
  Pz  C   17    0.0467   -0.1563    0.1905   -0.1541    0.0086    0.0109    0.0331    0.2085
  S   H   18    0.1245   -0.0081    0.1471   -0.1548    0.0078    0.0185    0.0356   -0.0027
  S   C   19   -0.0082    0.0148   -0.0170    0.0136   -0.0007    0.0012   -0.0072    0.0230
  Px  C   19    0.1601    0.1430    0.0550   -0.1290    0.0066    0.0240   -0.0056    0.2804
  Py  C   19   -0.0591   -0.1838    0.0049    0.0160   -0.0008   -0.0118   -0.0614    0.3200
  Pz  C   19   -0.1195    0.1933   -0.1633    0.1033   -0.0053   -0.0083   -0.0477    0.2116
  S   H   20   -0.0305    0.2188   -0.1114    0.0589   -0.0034    0.0027   -0.0039    0.0006
  S   O   21    0.0061    0.0065    0.0007   -0.0030    0.0001    0.0015    0.0000    0.0000
  Px  O   21    0.0071    0.0134    0.0043   -0.0267    0.0025   -0.3393   -0.0000   -0.0001
  Py  O   21    0.0159    0.0201    0.0040   -0.0225    0.0019   -0.2188   -0.0000   -0.0001
  Pz  O   21   -0.0216   -0.0351   -0.0111    0.0714   -0.0067    0.9095    0.0018    0.0014
  S   H   22   -0.0004   -0.0002    0.0000    0.0002   -0.0000   -0.0006    0.0002    0.0001
  S   H   23   -0.0076   -0.0083   -0.0009    0.0038   -0.0002   -0.0012   -0.0002   -0.0001
  S   O   24    0.0059   -0.0009    0.0018    0.0016   -0.0001   -0.0000   -0.0001    0.0002
  Px  O   24   -0.0059    0.0116    0.0109    0.0179    0.0005   -0.0015    0.0026    0.0015
  Py  O   24   -0.0202    0.0070   -0.0279   -0.0231    0.0010    0.0008   -0.0103    0.0005
  Pz  O   24    0.0124   -0.0041    0.0053   -0.0014    0.0001    0.0004    0.0042   -0.0009
  S   H   25   -0.0048    0.0012   -0.0001    0.0007   -0.0000   -0.0001    0.0002   -0.0000
  S   H   26   -0.0033    0.0002   -0.0008   -0.0001    0.0000   -0.0000    0.0011   -0.0004
  S   O   27    0.0023   -0.0025    0.0006   -0.0017    0.0001    0.0001   -0.0016    0.0128
  Px  O   27    0.3780   -0.1248    0.0302   -0.0313    0.0014    0.0009   -0.0076    0.0260
  Py  O   27    0.0888   -0.0210    0.0031   -0.0056    0.0005    0.0002   -0.0035    0.0538
  Pz  O   27    0.3618   -0.1139    0.0272   -0.0261    0.0015    0.0005   -0.0058    0.0508
  S   H   28   -0.0016   -0.0008    0.0007    0.0012   -0.0001   -0.0001    0.0018   -0.0198
  S   H   29   -0.0002    0.0025   -0.0009    0.0007   -0.0000    0.0000    0.0004   -0.0008
  S   O   30   -0.0007   -0.0090    0.0017   -0.0020    0.0001   -0.0001    0.0022   -0.0001
  Px  O   30   -0.0000   -0.0104    0.0028   -0.0023    0.0001   -0.0000    0.0018    0.0002
  Py  O   30   -0.0005    0.0036   -0.0021   -0.0001   -0.0000    0.0000    0.0006    0.0002
  Pz  O   30   -0.0014   -0.0083    0.0006   -0.0021    0.0001   -0.0001    0.0020    0.0000
  S   H   31    0.0002    0.0022   -0.0005    0.0004   -0.0000    0.0000   -0.0011    0.0001
  S   H   32    0.0010    0.0117   -0.0021    0.0027   -0.0001    0.0001   -0.0028   -0.0000
  S   O   33    0.0022    0.0011    0.0061    0.0057   -0.0001   -0.0003   -0.0022    0.0000
  Px  O   33    0.0027    0.0019    0.0043    0.0048   -0.0001   -0.0002   -0.0005    0.0000
  Py  O   33    0.0021    0.0012    0.0107    0.0107   -0.0002   -0.0005   -0.0003   -0.0001
  Pz  O   33   -0.0010    0.0005   -0.0015    0.0008   -0.0000   -0.0001    0.0060   -0.0001
  S   H   34   -0.0028   -0.0017   -0.0094   -0.0093    0.0001    0.0004    0.0023    0.0000
  S   H   35   -0.0006   -0.0002   -0.0013   -0.0011    0.0000    0.0000    0.0013   -0.0000
  S   O   36    0.0184   -0.0048   -0.0044    0.0039   -0.0032   -0.0002   -0.0001   -0.0004
  Px  O   36    0.0669   -0.0163   -0.0258    0.0225   -0.0166   -0.0011   -0.0016    0.0023
  Py  O   36    0.0262   -0.0174   -0.0469    0.0552    0.9306    0.0024   -0.0001   -0.0010
  Pz  O   36    0.0301   -0.0040   -0.0104    0.0014   -0.3587   -0.0021   -0.0013    0.0039
  S   H   37   -0.0152    0.0023    0.0043   -0.0034    0.0003    0.0001    0.0000    0.0001
  S   H   38   -0.0071    0.0027   -0.0005   -0.0002   -0.0004   -0.0000   -0.0001    0.0008
  S   O   39    0.0000   -0.0001   -0.0002   -0.0003    0.0000    0.0000   -0.0001    0.0001
  Px  O   39    0.0021    0.0039    0.0044    0.0051   -0.0001   -0.0002    0.0005   -0.0002
  Py  O   39    0.0041    0.0073    0.0061    0.0071   -0.0001   -0.0002    0.0001   -0.0003
  Pz  O   39   -0.0025   -0.0043   -0.0050   -0.0059    0.0001    0.0002   -0.0011    0.0003
  S   H   40    0.0002    0.0004    0.0005    0.0006   -0.0000   -0.0000    0.0001   -0.0001
  S   H   41   -0.0002   -0.0002   -0.0001    0.0000   -0.0000   -0.0000    0.0002   -0.0001
  S   O   42   -0.0022   -0.0166   -0.0005   -0.0041    0.0005   -0.0001    0.0154    0.0001
  Px  O   42   -0.1909   -0.0339    0.0095    0.0044   -0.0061   -0.0004   -0.0046   -0.0010
  Py  O   42   -0.2906   -0.0630    0.0147    0.0024    0.0012   -0.0004   -0.0008    0.0003
  Pz  O   42    0.2285    0.0796   -0.0107    0.0053   -0.0038    0.0005   -0.0241   -0.0008
  S   H   43   -0.0000    0.0123    0.0004    0.0028   -0.0000    0.0001   -0.0123   -0.0001
  S   H   44   -0.0017    0.0076    0.0001    0.0023   -0.0002    0.0000   -0.0076   -0.0000
  S   O   45    0.0148    0.0018    0.0054    0.0006    0.0019    0.0001   -0.0010    0.0003
  Px  O   45    0.2994   -0.1803   -0.2987    0.2532   -0.0289   -0.0198   -0.0192    0.0019
  Py  O   45    0.0832   -0.1213   -0.2339    0.1591   -0.0352   -0.0143    0.0067    0.0010
  Pz  O   45   -0.2832    0.2312    0.4282   -0.3309    0.0453    0.0278    0.0209   -0.0101
  S   H   46   -0.0125    0.0008   -0.0033    0.0013    0.0005   -0.0003   -0.0005    0.0005
  S   H   47   -0.0166   -0.0009   -0.0061    0.0012   -0.0033   -0.0003    0.0002   -0.0009
  S   O   48   -0.0030   -0.0034    0.0029    0.0047   -0.0001   -0.0005    0.0062   -0.0024
  Px  O   48   -0.0053   -0.0438    0.0093   -0.0026    0.0001   -0.0007    0.0185   -0.0054
  Py  O   48   -0.0143   -0.0850    0.0218   -0.0033    0.0003   -0.0018    0.0272   -0.0054
  Pz  O   48   -0.0059   -0.0116    0.0048    0.0070   -0.0002   -0.0008    0.0101   -0.0005
  S   H   49    0.0037    0.0030   -0.0036   -0.0061    0.0001    0.0006   -0.0058    0.0021
  S   H   50   -0.0002   -0.0046    0.0009   -0.0021    0.0001    0.0001   -0.0029    0.0024
  S   O   51    0.0190    0.0047    0.0038    0.0036    0.0007   -0.0000    0.0016    0.0001
  Px  O   51   -0.0530   -0.0293    0.0352    0.0149    0.0022   -0.0008   -0.0232    0.0010
  Py  O   51   -0.1496   -0.0286   -0.0340   -0.0248   -0.0070    0.0005    0.0399   -0.0013
  Pz  O   51    0.0523    0.0303    0.0721    0.0667   -0.0031   -0.0019   -0.0834    0.0007
  S   H   52   -0.0034   -0.0015    0.0001    0.0008   -0.0003   -0.0001   -0.0089    0.0003
  S   H   53   -0.0111   -0.0036    0.0011   -0.0000   -0.0004   -0.0001   -0.0030    0.0001
  S   O   54    0.0001    0.0001    0.0001    0.0001   -0.0000   -0.0000   -0.0002   -0.0000
  Px  O   54    0.0004    0.0009    0.0012    0.0017   -0.0000   -0.0001    0.0017   -0.0001
  Py  O   54    0.0008    0.0004    0.0006    0.0004   -0.0000    0.0000    0.0008    0.0000
  Pz  O   54    0.0004    0.0003    0.0006    0.0005   -0.0000   -0.0000    0.0008    0.0000
  S   H   55   -0.0001   -0.0001   -0.0001   -0.0001    0.0000   -0.0000    0.0004   -0.0000
  S   H   56   -0.0001   -0.0001   -0.0001   -0.0000   -0.0000   -0.0000    0.0002    0.0000
  S   H   57    0.0313    0.0042    0.1837    0.1872   -0.0029   -0.0099   -0.0549    0.0015
  S   H   58    0.0051   -0.0919   -0.0776   -0.1464    0.0036    0.0090   -0.0422    0.0123


   Root No.      77        78        79        80        81        82        83        84

                77 A      78 A      79 A      80 A      81 A      82 A      83 A      84 A   

                -7.281     2.358     2.394     2.639     3.621     4.351     4.685     5.036
  
  S   C    1   -0.0012   -0.0113    0.0053    0.0100   -0.3256    0.0119   -0.0091   -0.0222
  Px  C    1    0.0162   -0.0647    0.0155    0.2112   -0.3769    0.0091   -0.0088   -0.0112
  Py  C    1    0.0155   -0.0873    0.0153    0.3465   -0.0819   -0.0072   -0.0064   -0.0107
  Pz  C    1    0.0307   -0.1523    0.0234    0.6679    0.1388   -0.0083   -0.0223    0.0110
  S   O    2    0.0017   -0.0030    0.0008    0.0015   -0.0235   -0.0021    0.0033   -0.0017
  Px  O    2   -0.0187    0.0318   -0.0075   -0.1123    0.1574   -0.0055    0.0072    0.0042
  Py  O    2   -0.0247    0.0482   -0.0074   -0.2068    0.0052   -0.0023    0.0093   -0.0021
  Pz  O    2   -0.0616    0.0839   -0.0134   -0.3421   -0.0397    0.0074    0.0058   -0.0002
  S   N    3   -0.0071    0.0091   -0.0089    0.0361    0.4440   -0.0116    0.0034    0.0104
  Px  N    3    0.0172    0.0158   -0.0063   -0.0547    0.0107    0.0130    0.0059   -0.0050
  Py  N    3    0.0780    0.0327   -0.0028   -0.2066   -0.0722   -0.0062    0.0138   -0.0254
  Pz  N    3    0.0919    0.0606   -0.0122   -0.3004    0.1325    0.0106    0.0281    0.0170
  S   H    4    0.0144   -0.0142    0.0080   -0.0084   -0.3420    0.0213    0.0036    0.0125
  S   C    5    0.0418   -0.0547    0.0147   -0.0180   -0.1826    0.0163    0.0540   -0.0194
  Px  C    5   -0.0131   -0.0020   -0.0072    0.0530    0.4279   -0.0027    0.0078    0.0142
  Py  C    5   -0.1213    0.0858   -0.0123   -0.0438   -0.2338   -0.0287   -0.1054    0.0015
  Pz  C    5   -0.0694    0.0651   -0.0070    0.0009    0.0698   -0.0156   -0.0742    0.0200
  S   H    6   -0.0138   -0.0121    0.0030    0.0455   -0.0335   -0.0173    0.0015   -0.0103
  S   C    7    0.0095    0.0333   -0.0124   -0.0480    0.0198   -0.0676   -0.0400    0.0123
  Px  C    7    0.1011   -0.0153   -0.0075   -0.0098    0.0418    0.0400   -0.0126   -0.0131
  Py  C    7    0.1262    0.0266    0.0083   -0.0674   -0.0359   -0.0362   -0.0639   -0.0081
  Pz  C    7    0.0429    0.0309   -0.0104   -0.0510    0.0016    0.0750   -0.0545    0.0228
  S   H    8   -0.1294    0.0774   -0.0124    0.0153    0.0364   -0.0008   -0.0567   -0.0086
  S   H    9   -0.0068    0.0099   -0.0018    0.0043    0.0348    0.0553   -0.0146    0.0263
  S   C   10    0.0191   -0.0125    0.0154    0.0033   -0.0609   -0.0075    0.0033   -0.0017
  Px  C   10   -0.2895    0.3261   -0.0512    0.0735    0.0653    0.0153   -0.1832   -0.0043
  Py  C   10   -0.3952    0.4295   -0.0718    0.1132   -0.0761    0.0002   -0.2376   -0.0108
  Pz  C   10   -0.1905    0.2149   -0.0266    0.0496    0.0053    0.0148   -0.1637    0.0016
  S   C   11   -0.0017   -0.0008    0.0130   -0.0050    0.0055   -0.0072    0.0037    0.0067
  Px  C   11   -0.1733   -0.1259    0.2484   -0.0302    0.0053    0.0005    0.1765   -0.0034
  Py  C   11   -0.2960   -0.2105    0.4054   -0.0587    0.0051   -0.0034    0.2717    0.0016
  Pz  C   11   -0.1400   -0.0937    0.1920   -0.0305    0.0122    0.0155    0.1083    0.0023
  S   H   12    0.0070    0.0012   -0.0227   -0.0006    0.0094    0.0085   -0.0337    0.0001
  S   C   13    0.0091   -0.0047   -0.0051    0.0001   -0.0087    0.0009   -0.0084   -0.0015
  Px  C   13    0.0941   -0.1174   -0.2146   -0.0248    0.0152   -0.0010   -0.1683    0.0010
  Py  C   13    0.1869   -0.2150   -0.3808   -0.0413   -0.0046   -0.0003   -0.2863   -0.0029
  Pz  C   13    0.1250   -0.1419   -0.2510   -0.0288    0.0076    0.0014   -0.2121   -0.0000
  S   H   14   -0.0054    0.0032   -0.0106   -0.0005    0.0032    0.0025   -0.0184    0.0011
  S   C   15   -0.0383   -0.0265    0.0027   -0.0061   -0.0025   -0.0010   -0.0125    0.0001
  Px  C   15    0.2605    0.2452    0.0115    0.0608   -0.0089   -0.0029    0.2077    0.0011
  Py  C   15    0.4199    0.4034    0.0260    0.1003   -0.0198   -0.0059    0.3590    0.0023
  Pz  C   15    0.2399    0.2351   -0.0120    0.0584   -0.0095    0.0006    0.1733    0.0022
  S   H   16   -0.0024    0.0101   -0.0149    0.0036   -0.0040   -0.0001    0.0171   -0.0004
  S   C   17   -0.0078   -0.0098   -0.0115   -0.0020   -0.0001   -0.0080    0.0228   -0.0021
  Px  C   17   -0.1355   -0.1936   -0.2517   -0.0303   -0.0003   -0.0050    0.2176    0.0035
  Py  C   17   -0.1471   -0.2574   -0.3209   -0.0409   -0.0106   -0.0159    0.3013    0.0026
  Pz  C   17   -0.0821   -0.1237   -0.1636   -0.0204   -0.0042    0.0043    0.1265    0.0080
  S   H   18    0.0034    0.0062   -0.0005    0.0008    0.0073   -0.0002    0.0063   -0.0017
  S   C   19    0.0077   -0.0031    0.0339   -0.0016   -0.0060   -0.0003   -0.0207   -0.0002
  Px  C   19    0.1673   -0.1084    0.2976   -0.0437    0.0251    0.0064   -0.2453   -0.0033
  Py  C   19    0.1948   -0.1360    0.3658   -0.0526    0.0102    0.0077   -0.3237   -0.0043
  Pz  C   19    0.1395   -0.0959    0.2274   -0.0362    0.0121    0.0062   -0.2238   -0.0022
  S   H   20    0.0018    0.0030   -0.0258    0.0023    0.0004   -0.0028    0.0406   -0.0008
  S   O   21    0.0019    0.0009    0.0002    0.0002    0.0000   -0.0000    0.0008    0.0000
  Px  O   21   -0.0021    0.0002    0.0002    0.0001    0.0001   -0.0000    0.0005    0.0000
  Py  O   21    0.0012   -0.0002    0.0000   -0.0001    0.0000    0.0000   -0.0005   -0.0000
  Pz  O   21    0.0026    0.0005    0.0004    0.0001    0.0000   -0.0000    0.0003    0.0000
  S   H   22   -0.0011   -0.0012   -0.0002   -0.0003   -0.0000    0.0000   -0.0012   -0.0000
  S   H   23   -0.0022   -0.0017   -0.0003   -0.0004   -0.0000    0.0000   -0.0017   -0.0000
  S   O   24    0.0002   -0.0019   -0.0009   -0.0052    0.0007   -0.0035    0.0075    0.0050
  Px  O   24    0.0021   -0.0019   -0.0003    0.0061   -0.0020    0.0011   -0.0022   -0.0014
  Py  O   24    0.0028   -0.0007   -0.0009   -0.0113    0.0028   -0.0035    0.0089    0.0052
  Pz  O   24   -0.0052    0.0041    0.0012    0.0040    0.0016    0.0050   -0.0081   -0.0054
  S   H   25   -0.0002    0.0042    0.0015    0.0051    0.0009    0.0072   -0.0130   -0.0092
  S   H   26    0.0002    0.0006    0.0014    0.0150   -0.0040    0.0055   -0.0141   -0.0089
  S   O   27    0.0053   -0.0094    0.0027   -0.0025    0.0002   -0.0007   -0.0007    0.0010
  Px  O   27    0.0249    0.0076    0.0123    0.0014    0.0004    0.0013   -0.0092   -0.0015
  Py  O   27    0.0029   -0.0156   -0.0031   -0.0036   -0.0000   -0.0011    0.0048    0.0012
  Pz  O   27    0.0106   -0.0129    0.0043   -0.0034    0.0003   -0.0007   -0.0023    0.0011
  S   H   28   -0.0055    0.0111   -0.0069    0.0032   -0.0004    0.0006    0.0055   -0.0011
  S   H   29   -0.0015    0.0152    0.0036    0.0037    0.0001    0.0019   -0.0070   -0.0026
  S   O   30    0.0002    0.0000    0.0005   -0.0010    0.0039   -0.1323    0.0003   -0.2311
  Px  O   30    0.0001    0.0000    0.0000   -0.0005    0.0028   -0.0188    0.0003   -0.0276
  Py  O   30    0.0001    0.0001    0.0001   -0.0012    0.0096   -0.1603    0.0008   -0.3568
  Pz  O   30    0.0003    0.0000   -0.0003    0.0004   -0.0012    0.1173   -0.0003    0.2576
  S   H   31   -0.0001   -0.0002   -0.0006    0.0019   -0.0105    0.2352   -0.0006    0.4315
  S   H   32   -0.0004    0.0002   -0.0008    0.0017   -0.0058    0.2859   -0.0009    0.5786
  S   O   33   -0.0000   -0.0001   -0.0001   -0.0010    0.0036   -0.0010    0.0021    0.0014
  Px  O   33    0.0001   -0.0000   -0.0000   -0.0003   -0.0015    0.0003   -0.0008   -0.0006
  Py  O   33    0.0002   -0.0003    0.0001    0.0015    0.0013   -0.0001   -0.0000   -0.0000
  Pz  O   33    0.0008   -0.0006   -0.0000    0.0014    0.0039   -0.0010    0.0021    0.0014
  S   H   34    0.0000   -0.0001    0.0002    0.0023   -0.0065    0.0016   -0.0035   -0.0022
  S   H   35    0.0000    0.0003    0.0001    0.0002   -0.0058    0.0015   -0.0031   -0.0021
  S   O   36   -0.0001    0.0003   -0.0003    0.0004   -0.0001   -0.0002    0.0011    0.0010
  Px  O   36    0.0003   -0.0002    0.0005   -0.0010    0.0001    0.0005   -0.0021   -0.0019
  Py  O   36    0.0001   -0.0000    0.0001   -0.0001    0.0001    0.0001   -0.0004   -0.0003
  Pz  O   36    0.0007   -0.0005    0.0004   -0.0005    0.0001    0.0003   -0.0012   -0.0009
  S   H   37    0.0000   -0.0006    0.0006   -0.0008    0.0002    0.0006   -0.0026   -0.0023
  S   H   38    0.0003   -0.0003    0.0003   -0.0005    0.0000    0.0003   -0.0014   -0.0013
  S   O   39   -0.0002    0.0006   -0.0004    0.0006    0.0259   -0.0151   -0.0004   -0.0480
  Px  O   39    0.0006   -0.0009    0.0005   -0.0009   -0.0358    0.0200    0.0006    0.0640
  Py  O   39    0.0006   -0.0004    0.0002   -0.0003   -0.0126    0.0080    0.0002    0.0194
  Pz  O   39   -0.0009    0.0008   -0.0005    0.0010    0.0286   -0.0023   -0.0004   -0.0125
  S   H   40    0.0001   -0.0006    0.0004   -0.0005   -0.0293    0.0242    0.0005    0.0786
  S   H   41    0.0002   -0.0014    0.0009   -0.0016   -0.0623    0.0279    0.0011    0.0967
  S   O   42    0.0021   -0.0004    0.0003   -0.0001    0.0023    0.0014    0.0015    0.0024
  Px  O   42   -0.0001    0.0009    0.0003   -0.0025   -0.0006    0.0005   -0.0003    0.0001
  Py  O   42   -0.0000    0.0005   -0.0003   -0.0028   -0.0001    0.0002   -0.0001   -0.0005
  Pz  O   42   -0.0027   -0.0005    0.0003    0.0025    0.0008    0.0005    0.0010    0.0019
  S   H   43   -0.0018    0.0003   -0.0003    0.0012   -0.0030   -0.0022   -0.0021   -0.0032
  S   H   44   -0.0012    0.0002   -0.0006    0.0001   -0.0026   -0.0018   -0.0017   -0.0032
  S   O   45   -0.0000   -0.0023   -0.0006    0.0017    0.0000   -0.0011    0.0040    0.0034
  Px  O   45   -0.0023    0.0038    0.0012   -0.0022   -0.0005    0.0019   -0.0068   -0.0051
  Py  O   45    0.0012   -0.0024    0.0005    0.0077    0.0003   -0.0003    0.0020    0.0033
  Pz  O   45    0.0024    0.0041    0.0023    0.0023    0.0005    0.0015   -0.0051   -0.0028
  S   H   46   -0.0002    0.0036    0.0017    0.0006   -0.0000    0.0025   -0.0090   -0.0063
  S   H   47   -0.0001    0.0039    0.0002   -0.0073   -0.0006    0.0014   -0.0061   -0.0067
  S   O   48    0.0010    0.0020    0.0040   -0.0025   -0.0073   -0.2104   -0.0043    0.1105
  Px  O   48   -0.0111    0.0033    0.0008    0.0009    0.0032    0.1909    0.0020   -0.0757
  Py  O   48    0.0066    0.0015    0.0053   -0.0043   -0.0110   -0.3318   -0.0060    0.1475
  Pz  O   48    0.0033    0.0003   -0.0058    0.0023    0.0082    0.2917    0.0039   -0.1631
  S   H   49   -0.0041   -0.0029   -0.0066    0.0042    0.0122    0.3197    0.0070   -0.2026
  S   H   50    0.0045   -0.0038   -0.0082    0.0044    0.0158    0.6361    0.0121   -0.3060
  S   O   51    0.0011   -0.0052    0.0008    0.0179    0.0015   -0.0005    0.0031    0.0040
  Px  O   51   -0.0034    0.0049   -0.0007   -0.0199    0.0026    0.0015    0.0006    0.0014
  Py  O   51    0.0048   -0.0031    0.0009    0.0126    0.0028    0.0006    0.0013    0.0024
  Pz  O   51   -0.0107    0.0113   -0.0017   -0.0401   -0.0012    0.0014   -0.0038   -0.0045
  S   H   52   -0.0027    0.0142   -0.0022   -0.0533   -0.0008    0.0023   -0.0055   -0.0069
  S   H   53   -0.0010    0.0036   -0.0007   -0.0116   -0.0041   -0.0007   -0.0043   -0.0064
  S   O   54   -0.0000    0.0001   -0.0001    0.0003    0.0080   -0.0023   -0.0000   -0.0114
  Px  O   54    0.0003   -0.0001    0.0001   -0.0002   -0.0075    0.0019    0.0001    0.0095
  Py  O   54   -0.0002   -0.0001    0.0001   -0.0003   -0.0068    0.0018    0.0000    0.0080
  Pz  O   54   -0.0001   -0.0000    0.0001   -0.0004   -0.0087    0.0025    0.0000    0.0111
  S   H   55    0.0001   -0.0001    0.0001   -0.0004   -0.0133    0.0038    0.0001    0.0204
  S   H   56   -0.0000   -0.0000    0.0001   -0.0006   -0.0130    0.0040    0.0001    0.0199
  S   H   57   -0.0084    0.0069   -0.0043    0.0070    0.2253   -0.0026    0.0045    0.0243
  S   H   58   -0.0445   -0.0038    0.0002    0.0292    0.0518    0.0039    0.0116    0.0124


              NET ATOMIC CHARGES AND DIPOLE CONTRIBUTIONS

  ATOM NO.   TYPE          CHARGE      No. of ELECS.   s-Pop       p-Pop       
    1          C           0.508831        3.4912     1.11946     2.37171
    2          O          -0.697190        6.6972     1.86249     4.83470
    3          N          -0.554666        5.5547     1.56070     3.99397
    4          H           0.334901        0.6651     0.66510
    5          C          -0.055523        4.0555     1.05921     2.99631
    6          H           0.171210        0.8288     0.82879
    7          C          -0.333090        4.3331     1.06983     3.26326
    8          H           0.161117        0.8389     0.83888
    9          H           0.157026        0.8430     0.84297
   10          C          -0.016483        4.0165     1.08077     2.93572
   11          C          -0.235650        4.2357     1.08084     3.15481
   12          H           0.131813        0.8682     0.86819
   13          C          -0.171860        4.1719     1.08843     3.08343
   14          H           0.156418        0.8436     0.84358
   15          C          -0.173808        4.1738     1.09247     3.08134
   16          H           0.181187        0.8188     0.81881
   17          C          -0.229743        4.2297     1.09796     3.13179
   18          H           0.190041        0.8100     0.80996
   19          C          -0.056917        4.0569     1.09753     2.95938
   20          H           0.195029        0.8050     0.80497
   21          O          -0.767132        6.7671     1.84890     4.91823
   22          H           0.394451        0.6055     0.60555
   23          H           0.372598        0.6274     0.62740
   24          O          -0.798405        6.7984     1.83727     4.96114
   25          H           0.401595        0.5984     0.59840
   26          H           0.405453        0.5945     0.59455
   27          O          -0.788951        6.7890     1.82334     4.96561
   28          H           0.437057        0.5629     0.56294
   29          H           0.348550        0.6515     0.65145
   30          O          -0.790373        6.7904     1.84944     4.94094
   31          H           0.397276        0.6027     0.60272
   32          H           0.393739        0.6063     0.60626
   33          O          -0.753646        6.7536     1.81066     4.94298
   34          H           0.394290        0.6057     0.60571
   35          H           0.361808        0.6382     0.63819
   36          O          -0.834146        6.8341     1.82642     5.00773
   37          H           0.391271        0.6087     0.60873
   38          H           0.433524        0.5665     0.56648
   39          O          -0.859205        6.8592     1.80529     5.05392
   40          H           0.395762        0.6042     0.60424
   41          H           0.463532        0.5365     0.53647
   42          O          -0.808583        6.8086     1.80628     5.00230
   43          H           0.394782        0.6052     0.60522
   44          H           0.465418        0.5346     0.53458
   45          O          -0.816838        6.8168     1.85769     4.95915
   46          H           0.360961        0.6390     0.63904
   47          H           0.401036        0.5990     0.59896
   48          O          -0.754288        6.7543     1.86822     4.88607
   49          H           0.358089        0.6419     0.64191
   50          H           0.392025        0.6080     0.60798
   51          O          -0.852069        6.8521     1.83277     5.01930
   52          H           0.402814        0.5972     0.59719
   53          H           0.418941        0.5811     0.58106
   54          O          -0.826774        6.8268     1.79163     5.03515
   55          H           0.460720        0.5393     0.53928
   56          H           0.366139        0.6339     0.63386
   57          H           0.193388        0.8066     0.80661
   58          H           0.182551        0.8174     0.81745
 DIPOLE           X         Y         Z       TOTAL
 POINT-CHG.    -5.581    11.262    -3.154    12.959
 HYBRID        -1.050     0.413    -0.984     1.498
 SUM           -6.632    11.676    -4.138    14.051


          ATOMIC ORBITAL ELECTRON POPULATIONS

     Atom    s        px        py        pz   
    1  C   1.11946   0.82010   0.84539   0.70622
    2  O   1.86249   1.81891   1.46741   1.54837
    3  N   1.56070   1.14486   1.35162   1.49749
    4  H   0.66510
    5  C   1.05921   0.87455   1.02106   1.10070
    6  H   0.82879
    7  C   1.06983   1.08838   1.06038   1.11450
    8  H   0.83888
    9  H   0.84297
   10  C   1.08077   0.96119   0.98381   0.99073
   11  C   1.08084   1.01918   1.07521   1.06042
   12  H   0.86819
   13  C   1.08843   1.03430   0.99324   1.05590
   14  H   0.84358
   15  C   1.09247   1.07466   1.02147   0.98521
   16  H   0.81881
   17  C   1.09796   1.06460   1.02771   1.03947
   18  H   0.80996
   19  C   1.09753   0.95179   0.96840   1.03919
   20  H   0.80497
   21  O   1.84890   1.55267   1.45617   1.90939
   22  H   0.60555
   23  H   0.62740
   24  O   1.83727   1.87258   1.60368   1.48488
   25  H   0.59840
   26  H   0.59455
   27  O   1.82334   1.75705   1.44779   1.76076
   28  H   0.56294
   29  H   0.65145
   30  O   1.84944   1.74198   1.60488   1.59408
   31  H   0.60272
   32  H   0.60626
   33  O   1.81066   1.74523   1.51201   1.68575
   34  H   0.60571
   35  H   0.63819
   36  O   1.82642   1.57072   1.92825   1.50876
   37  H   0.60873
   38  H   0.56648
   39  O   1.80529   1.61899   1.98552   1.44941
   40  H   0.60424
   41  H   0.53647
   42  O   1.80628   1.61331   1.69838   1.69061
   43  H   0.60522
   44  H   0.53458
   45  O   1.85769   1.65847   1.56009   1.74058
   46  H   0.63904
   47  H   0.59896
   48  O   1.86822   1.72488   1.68541   1.47578
   49  H   0.64191
   50  H   0.60798
   51  O   1.83277   1.65343   1.71718   1.64869
   52  H   0.59719
   53  H   0.58106
   54  O   1.79163   1.55133   1.89816   1.58566
   55  H   0.53928
   56  H   0.63386
   57  H   0.80661
   58  H   0.81745


          SIGMA-PI BOND-ORDER MATRIX

                 S-SIGMA    P-SIGMA      P-PI     S-SIGMA    P-SIGMA      P-PI 
                  C  1       C  1       C  1       O  2       O  2       O  2
------------------------------------------------------------------------------
 S-SIGMA  C  1   0.950887
 P-SIGMA  C  1   0.000000   1.754112
   P-PI   C  1   0.000000   0.000000   1.041364
 S-SIGMA  O  2   0.023060   0.139691   0.000044   0.177743
 P-SIGMA  O  2   0.259565   0.514349   0.005103   0.000000   0.886608
   P-PI   O  2   0.010764   0.001708   0.588041   0.000000   0.000000   0.751172
 S-SIGMA  N  3   0.041999   0.174666   0.003482   0.000785   0.009759   0.013970
 P-SIGMA  N  3   0.202479   0.385546   0.003148   0.000237   0.016012   0.008580
   P-PI   N  3   0.002679   0.002013   0.409672   0.001271   0.000238   0.111150
 S-SIGMA  H  4   0.002390   0.003297   0.007008   0.000123   0.011903   0.003139
 S-SIGMA  C  5   0.000053   0.001116   0.000039   0.000114   0.000066   0.000624
 P-SIGMA  C  5   0.000845   0.015062   0.002648   0.000292   0.001473   0.002227
   P-PI   C  5   0.000217   0.000713   0.001204   0.000141   0.001529   0.002242
 S-SIGMA  H  6   0.000110   0.000796   0.001822   0.000003   0.000482   0.000791
 S-SIGMA  C  7   0.000017   0.000054   0.002184   0.000001   0.000001   0.000812
 P-SIGMA  C  7   0.000120   0.000008   0.002536   0.000000   0.000000   0.000465
   P-PI   C  7   0.000033   0.000291   0.002742   0.000024   0.000334   0.001637
 S-SIGMA  H  8   0.000089   0.000185   0.000073   0.000003   0.000007   0.000015
 S-SIGMA  H  9   0.000004   0.000048   0.000004   0.000001   0.000007   0.000007
 S-SIGMA  C 10   0.000011   0.000047   0.000143   0.000002   0.000027   0.000038
 P-SIGMA  C 10   0.000041   0.000112   0.000396   0.000004   0.000042   0.000081
   P-PI   C 10   0.000005   0.000014   0.000057   0.000002   0.000023   0.000034
 S-SIGMA  C 11   0.000000   0.000000   0.000011   0.000000   0.000000   0.000004
 P-SIGMA  C 11   0.000001   0.000001   0.000018   0.000000   0.000001   0.000011
   P-PI   C 11   0.000002   0.000000   0.000115   0.000001   0.000002   0.000050
 S-SIGMA  H 12   0.000000   0.000000   0.000003   0.000000   0.000000   0.000001
 S-SIGMA  C 13   0.000000   0.000001   0.000002   0.000000   0.000000   0.000001
 P-SIGMA  C 13   0.000001   0.000001   0.000007   0.000000   0.000001   0.000002
   P-PI   C 13   0.000000   0.000001   0.000003   0.000000   0.000001   0.000001
 S-SIGMA  H 14   0.000000   0.000000   0.000002   0.000000   0.000000   0.000001
 S-SIGMA  C 15   0.000000   0.000000   0.000001   0.000000   0.000000   0.000000
 P-SIGMA  C 15   0.000000   0.000000   0.000001   0.000000   0.000000   0.000000
   P-PI   C 15   0.000001   0.000001   0.000046   0.000000   0.000000   0.000025
 S-SIGMA  H 16   0.000000   0.000000   0.000000   0.000000   0.000000   0.000000
 S-SIGMA  C 17   0.000000   0.000000   0.000001   0.000000   0.000001   0.000001
 P-SIGMA  C 17   0.000001   0.000000   0.000001   0.000000   0.000001   0.000004
   P-PI   C 17   0.000002   0.000002   0.000082   0.000001   0.000000   0.000039
 S-SIGMA  H 18   0.000000   0.000001   0.000002   0.000000   0.000000   0.000001
 S-SIGMA  C 19   0.000000   0.000000   0.000002   0.000000   0.000000   0.000000
 P-SIGMA  C 19   0.000001   0.000001   0.000005   0.000000   0.000001   0.000001
   P-PI   C 19   0.000000   0.000000   0.000000   0.000000   0.000000   0.000000
 S-SIGMA  H 20   0.000000   0.000000   0.000000   0.000000   0.000000   0.000000

                  S-SIGMA    P-SIGMA      P-PI     S-SIGMA    P-SIGMA      P-PI 
                    C  1       C  1       C  1       O  2       O  2       O  2
------------------------------------------------------------------------------
 S-SIGMA  O 21   0.000000   0.000000   0.000000   0.000000   0.000000   0.000000
 P-SIGMA  O 21   0.000000   0.000000   0.000000   0.000000   0.000000   0.000000
   P-PI   O 21   0.000000   0.000000   0.000000   0.000000   0.000000   0.000000
 S-SIGMA  H 22   0.000000   0.000000   0.000000   0.000000   0.000000   0.000000
 S-SIGMA  H 23   0.000000   0.000000   0.000000   0.000000   0.000000   0.000000
 S-SIGMA  O 24   0.000003   0.000031   0.000026   0.000127   0.000286   0.000008
 P-SIGMA  O 24   0.000174   0.000581   0.000401   0.001012   0.000597   0.000167
   P-PI   O 24   0.000039   0.000104   0.000074   0.000079   0.000066   0.000010
 S-SIGMA  H 25   0.000000   0.000000   0.000005   0.000014   0.000104   0.000004
 S-SIGMA  H 26   0.000008   0.000058   0.000078   0.001168   0.005108   0.000138
 S-SIGMA  O 27   0.000000   0.000000   0.000000   0.000000   0.000000   0.000000
 P-SIGMA  O 27   0.000000   0.000000   0.000000   0.000000   0.000000   0.000000
   P-PI   O 27   0.000000   0.000000   0.000000   0.000000   0.000000   0.000000
 S-SIGMA  H 28   0.000000   0.000000   0.000000   0.000000   0.000000   0.000000
 S-SIGMA  H 29   0.000000   0.000000   0.000000   0.000000   0.000000   0.000000
 S-SIGMA  O 30   0.000000   0.000000   0.000000   0.000000   0.000000   0.000000
 P-SIGMA  O 30   0.000000   0.000000   0.000000   0.000000   0.000000   0.000000
   P-PI   O 30   0.000000   0.000000   0.000002   0.000000   0.000000   0.000002
 S-SIGMA  H 31   0.000000   0.000000   0.000001   0.000000   0.000000   0.000001
 S-SIGMA  H 32   0.000000   0.000000   0.000000   0.000000   0.000000   0.000000
 S-SIGMA  O 33   0.000012   0.000023   0.000031   0.000045   0.000031   0.000013
 P-SIGMA  O 33   0.000024   0.000037   0.000020   0.000004   0.000228   0.000000
   P-PI   O 33   0.000012   0.000019   0.000038   0.000048   0.000071   0.000047
 S-SIGMA  H 34   0.000027   0.000034   0.000055   0.000056   0.000096   0.000036
 S-SIGMA  H 35   0.000000   0.000001   0.000011   0.000074   0.000486   0.000007
 S-SIGMA  O 36   0.000000   0.000000   0.000000   0.000000   0.000000   0.000000
 P-SIGMA  O 36   0.000000   0.000000   0.000000   0.000001   0.000002   0.000000
   P-PI   O 36   0.000000   0.000000   0.000000   0.000000   0.000001   0.000000
 S-SIGMA  H 37   0.000000   0.000000   0.000000   0.000000   0.000000   0.000000
 S-SIGMA  H 38   0.000000   0.000000   0.000000   0.000000   0.000000   0.000000
 S-SIGMA  O 39   0.000000   0.000000   0.000005   0.000000   0.000003   0.000004
 P-SIGMA  O 39   0.000007   0.000005   0.000058   0.000000   0.000018   0.000023
   P-PI   O 39   0.000000   0.000001   0.000008   0.000000   0.000003   0.000006
 S-SIGMA  H 40   0.000000   0.000000   0.000001   0.000000   0.000001   0.000002
 S-SIGMA  H 41   0.000000   0.000000   0.000007   0.000000   0.000005   0.000014
 S-SIGMA  O 42   0.000000   0.000002   0.000000   0.000002   0.000026   0.000002
 P-SIGMA  O 42   0.000000   0.000001   0.000000   0.000004   0.000019   0.000001
   P-PI   O 42   0.000000   0.000009   0.000015   0.000008   0.000026   0.000004
 S-SIGMA  H 43   0.000000   0.000003   0.000000   0.000000   0.000011   0.000001
 S-SIGMA  H 44   0.000000   0.000001   0.000000   0.000000   0.000010   0.000001
 S-SIGMA  O 45   0.000000   0.000000   0.000001   0.000003   0.000013   0.000002
 P-SIGMA  O 45   0.000002   0.000012   0.000029   0.000049   0.000113   0.000033
   P-PI   O 45   0.000001   0.000003   0.000012   0.000003   0.000011   0.000021
 S-SIGMA  H 46   0.000000   0.000000   0.000000   0.000001   0.000009   0.000000
 S-SIGMA  H 47   0.000000   0.000000   0.000003   0.000003   0.000062   0.000009
 S-SIGMA  O 48   0.000000   0.000002   0.000000   0.000000   0.000001   0.000000
 P-SIGMA  O 48   0.000000   0.000003   0.000001   0.000000   0.000000   0.000000

                  S-SIGMA    P-SIGMA      P-PI     S-SIGMA    P-SIGMA      P-PI 
                    C  1       C  1       C  1       O  2       O  2       O  2
------------------------------------------------------------------------------
   P-PI   O 48   0.000000   0.000004   0.000001   0.000000   0.000002   0.000000
 S-SIGMA  H 49   0.000000   0.000002   0.000000   0.000000   0.000001   0.000000
 S-SIGMA  H 50   0.000000   0.000003   0.000000   0.000000   0.000001   0.000000
 S-SIGMA  O 51   0.000000   0.000004   0.000237   0.000435   0.002113   0.000122
 P-SIGMA  O 51   0.000145   0.000003   0.003789   0.003119   0.006331   0.001285
   P-PI   O 51   0.000011   0.000003   0.000304   0.000040   0.000247   0.000048
 S-SIGMA  H 52   0.000317   0.000215   0.000928   0.004720   0.033847   0.000512
 S-SIGMA  H 53   0.000002   0.000015   0.000030   0.000026   0.000412   0.000008
 S-SIGMA  O 54   0.000000   0.000000   0.000000   0.000000   0.000000   0.000000
 P-SIGMA  O 54   0.000000   0.000000   0.000003   0.000000   0.000000   0.000001
   P-PI   O 54   0.000000   0.000000   0.000001   0.000000   0.000000   0.000001
 S-SIGMA  H 55   0.000000   0.000001   0.000001   0.000000   0.000000   0.000001
 S-SIGMA  H 56   0.000000   0.000000   0.000000   0.000000   0.000000   0.000000
 S-SIGMA  H 57   0.403644   0.509146   0.003079   0.000874   0.015140   0.001692
 S-SIGMA  H 58   0.001966   0.004062   0.001462   0.000027   0.000181   0.000482

                 S-SIGMA    P-SIGMA      P-PI     S-SIGMA    S-SIGMA    P-SIGMA
                  N  3       N  3       N  3       H  4       C  5       C  5
------------------------------------------------------------------------------
 S-SIGMA  N  3   0.683762
 P-SIGMA  N  3   0.000000   1.918009
   P-PI   N  3   0.000000   0.000000   0.570827
 S-SIGMA  H  4   0.210463   0.629015   0.000051   0.887841
 S-SIGMA  C  5   0.030699   0.157314   0.001523   0.000251   0.977844
 P-SIGMA  C  5   0.187811   0.501159   0.001757   0.009024   0.000000   2.820865
   P-PI   C  5   0.000472   0.000128   0.031331   0.001566   0.000000   0.000000
 S-SIGMA  H  6   0.000017   0.000355   0.000622   0.004000   0.268592   0.677362
 S-SIGMA  C  7   0.000391   0.001652   0.001344   0.000644   0.051521   0.208556
 P-SIGMA  C  7   0.000403   0.000349   0.000614   0.001059   0.178839   0.519834
   P-PI   C  7   0.000122   0.000834   0.001967   0.000325   0.000198   0.002362
 S-SIGMA  H  8   0.000301   0.000154   0.000244   0.000145   0.000263   0.000001
 S-SIGMA  H  9   0.000133   0.000056   0.000183   0.000161   0.000001   0.000408
 S-SIGMA  C 10   0.000600   0.001186   0.000016   0.000143   0.000247   0.000000
 P-SIGMA  C 10   0.001380   0.001995   0.000107   0.000355   0.000398   0.000193
   P-PI   C 10   0.000074   0.000353   0.000049   0.000031   0.000057   0.000443
 S-SIGMA  C 11   0.000008   0.000013   0.000002   0.000007   0.000095   0.000173
 P-SIGMA  C 11   0.000013   0.000004   0.000002   0.000004   0.000001   0.000026
   P-PI   C 11   0.000036   0.000151   0.000026   0.000040   0.001604   0.003044
 S-SIGMA  H 12   0.000004   0.000007   0.000001   0.000002   0.000005   0.000005
 S-SIGMA  C 13   0.000005   0.000009   0.000000   0.000002   0.000005   0.000001
 P-SIGMA  C 13   0.000012   0.000018   0.000001   0.000004   0.000005   0.000001
   P-PI   C 13   0.000008   0.000009   0.000003   0.000004   0.000026   0.000001
 S-SIGMA  H 14   0.000002   0.000003   0.000000   0.000001   0.000008   0.000006
 S-SIGMA  C 15   0.000001   0.000002   0.000000   0.000001   0.000007   0.000005
 P-SIGMA  C 15   0.000000   0.000000   0.000001   0.000000   0.000025   0.000050
   P-PI   C 15   0.000007   0.000034   0.000020   0.000009   0.000433   0.000660
 S-SIGMA  H 16   0.000000   0.000000   0.000000   0.000000   0.000000   0.000001
 S-SIGMA  C 17   0.000000   0.000002   0.000000   0.000002   0.000111   0.000071
 P-SIGMA  C 17   0.000000   0.000004   0.000004   0.000001   0.000307   0.000287
   P-PI   C 17   0.000025   0.000058   0.000045   0.000019   0.000841   0.000892
 S-SIGMA  H 18   0.000002   0.000004   0.000000   0.000001   0.000000   0.000028
 S-SIGMA  C 19   0.000003   0.000004   0.000000   0.000000   0.000002   0.000005
 P-SIGMA  C 19   0.000010   0.000012   0.000001   0.000002   0.000001   0.000009
   P-PI   C 19   0.000001   0.000007   0.000001   0.000001   0.000024   0.000034
 S-SIGMA  H 20   0.000001   0.000001   0.000000   0.000000   0.000000   0.000001
 S-SIGMA  O 21   0.000000   0.000000   0.000000   0.000000   0.000000   0.000000
 P-SIGMA  O 21   0.000000   0.000000   0.000000   0.000000   0.000000   0.000000
   P-PI   O 21   0.000000   0.000000   0.000000   0.000000   0.000000   0.000000
 S-SIGMA  H 22   0.000000   0.000000   0.000000   0.000000   0.000000   0.000000
 S-SIGMA  H 23   0.000000   0.000000   0.000000   0.000000   0.000000   0.000000
 S-SIGMA  O 24   0.000001   0.000000   0.000002   0.000001   0.000000   0.000000
 P-SIGMA  O 24   0.000003   0.000000   0.000015   0.000007   0.000005   0.000001
   P-PI   O 24   0.000001   0.000001   0.000016   0.000008   0.000004   0.000002
 S-SIGMA  H 25   0.000001   0.000000   0.000001   0.000000   0.000000   0.000001
 S-SIGMA  H 26   0.000003   0.000002   0.000022   0.000002   0.000001   0.000002

                  S-SIGMA    P-SIGMA      P-PI     S-SIGMA    S-SIGMA    P-SIGMA
                    N  3       N  3       N  3       H  4       C  5       C  5
------------------------------------------------------------------------------
 S-SIGMA  O 27   0.000000   0.000000   0.000000   0.000000   0.000000   0.000000
 P-SIGMA  O 27   0.000000   0.000000   0.000000   0.000000   0.000001   0.000001
   P-PI   O 27   0.000000   0.000000   0.000000   0.000000   0.000000   0.000001
 S-SIGMA  H 28   0.000000   0.000000   0.000000   0.000000   0.000000   0.000000
 S-SIGMA  H 29   0.000000   0.000000   0.000000   0.000000   0.000000   0.000000
 S-SIGMA  O 30   0.000000   0.000003   0.000002   0.000000   0.000000   0.000001
 P-SIGMA  O 30   0.000002   0.000000   0.000002   0.000011   0.000000   0.000000
   P-PI   O 30   0.000006   0.000009   0.000011   0.000000   0.000000   0.000001
 S-SIGMA  H 31   0.000000   0.000013   0.000002   0.000036   0.000000   0.000000
 S-SIGMA  H 32   0.000000   0.000002   0.000001   0.000000   0.000000   0.000002
 S-SIGMA  O 33   0.000001   0.000003   0.000000   0.000003   0.000000   0.000000
 P-SIGMA  O 33   0.000000   0.000000   0.000000   0.000001   0.000000   0.000000
   P-PI   O 33   0.000002   0.000005   0.000002   0.000003   0.000000   0.000000
 S-SIGMA  H 34   0.000003   0.000008   0.000001   0.000006   0.000000   0.000000
 S-SIGMA  H 35   0.000002   0.000007   0.000000   0.000002   0.000000   0.000000
[...]
 PZ  N   3   0.00012     0.71606    -0.00005    -0.00067    -0.00001    -0.00003
  
  S  H   4  -0.00002    -0.00136     0.00026    -0.00020    -0.00004     0.00008
  
  S  C   5  -0.00043    -0.01205    -0.00009    -0.00134    -0.00019     0.00032
 PX  C   5   0.00017     0.01017     0.00004    -0.00036     0.00002    -0.00003
 PY  C   5   0.00006     0.04816     0.00001     0.00052     0.00022    -0.00022
 PZ  C   5  -0.00033     0.05292    -0.00008    -0.00009     0.00012     0.00025
  
  S  H   6   0.00027    -0.02165    -0.00001     0.00497     0.00000    -0.00015
  
  S  C   7  -0.00118     0.03189    -0.00008     0.00029     0.00013    -0.00043
 PX  C   7   0.00197     0.00889     0.00017    -0.00018    -0.00010    -0.00091
 PY  C   7   0.00118     0.02463     0.00013     0.00036    -0.00016     0.00041
 PZ  C   7  -0.00025     0.02641    -0.00002     0.00014     0.00005    -0.00005
  
  S  H   8   0.00323     0.00053     0.00002    -0.00004     0.00014    -0.00018
  
  S  H   9   0.00006    -0.00114     0.00001    -0.00009     0.00003    -0.00002
  
  S  C  10   0.00004    -0.00730     0.00001    -0.00001     0.00003    -0.00147
 PX  C  10   0.00064     0.01035     0.00002    -0.00002     0.00179    -0.00176
 PY  C  10   0.00033    -0.00082     0.00002     0.00014     0.00235     0.00061
 PZ  C  10   0.00039     0.00430     0.00002    -0.00002     0.00125    -0.00149
  
  S  C  11  -0.00023     0.00146    -0.00001     0.00005    -0.00012     0.00116
 PX  C  11   0.00009    -0.00339     0.00000    -0.00008    -0.00210    -0.00121
 PY  C  11  -0.00027    -0.00387    -0.00003    -0.00002    -0.00346     0.00042
 PZ  C  11  -0.00033    -0.00020    -0.00002     0.00005    -0.00170     0.00118
  
  S  H  12   0.00007     0.00069     0.00000    -0.00003     0.00009    -0.00046
  
  S  C  13  -0.00008    -0.00057    -0.00000     0.00002    -0.00017     0.00049
 PX  C  13  -0.00012     0.00027    -0.00001    -0.00002     0.00014     0.00003
 PY  C  13  -0.00027    -0.00123    -0.00001    -0.00002     0.00041     0.00049
 PZ  C  13  -0.00023    -0.00017    -0.00001    -0.00001     0.00003     0.00056
  
  S  H  14  -0.00003     0.00042    -0.00000     0.00001     0.00017     0.00015
  
  S  C  15  -0.00017    -0.00034    -0.00001     0.00004     0.00012     0.00068
 PX  C  15   0.00030     0.00143     0.00002    -0.00003     0.00191    -0.00089
 PY  C  15   0.00024     0.00207     0.00002     0.00002     0.00427    -0.00049
 PZ  C  15  -0.00005     0.00146     0.00000     0.00006     0.00294     0.00069
  
  S  H  16   0.00007    -0.00003     0.00000    -0.00002     0.00058    -0.00031
  
  S  C  17  -0.00219     0.00023    -0.00007     0.00042    -0.00071     0.01408
 PX  C  17   0.00168    -0.00186     0.00008    -0.00049     0.00325    -0.01187
 PY  C  17  -0.00054    -0.00291    -0.00002     0.00004     0.00383     0.00340
 PZ  C  17  -0.00244    -0.00105    -0.00010     0.00050     0.00189     0.01257
  
  S  H  18   0.00317     0.00008    -0.00000    -0.00030     0.00095    -0.03065
  
  S  C  19   0.00006    -0.00041     0.00000    -0.00001    -0.00272     0.00068
 PX  C  19   0.00019     0.00022     0.00000     0.00005    -0.00712    -0.00035
 PY  C  19   0.00058    -0.00071     0.00003    -0.00003    -0.00592    -0.00124
 PZ  C  19  -0.00003    -0.00023     0.00000     0.00004    -0.00669     0.00104
  
  S  H  20   0.00011     0.00005     0.00000    -0.00004     0.00520    -0.00201
  
  S  O  21  -0.00000     0.00000    -0.00000     0.00000     0.00000     0.00001
 PX  O  21  -0.00000     0.00000    -0.00000     0.00000    -0.00000     0.00001
 PY  O  21   0.00000    -0.00000    -0.00000     0.00000    -0.00000    -0.00000
 PZ  O  21  -0.00000     0.00000    -0.00000     0.00000    -0.00000     0.00000
  
  S  H  22   0.00000    -0.00001     0.00000    -0.00000    -0.00000    -0.00001
  
  S  H  23   0.00000    -0.00001     0.00000    -0.00000    -0.00000    -0.00001
  
  S  O  24  -0.01733    -0.00042    -0.00503     0.00051     0.00019     0.00025
 PX  O  24   0.87536     0.00066     0.00532    -0.00024    -0.00005     0.00014
 PY  O  24   0.47520    -0.00112    -0.01026     0.00119     0.00006     0.00019
 PZ  O  24   0.05642     0.00026     0.00065     0.00005    -0.00051    -0.00024
  
  S  H  25   0.00109     0.00032     0.00295    -0.00046    -0.00103    -0.00056
  
  S  H  26   0.00095     0.00146     0.02529    -0.00122    -0.00012    -0.00035
  
  S  O  27  -0.00116    -0.00005    -0.00006     0.00003     0.00002     0.00117
 PX  O  27   0.00165     0.00005     0.00012    -0.00006     0.70079    -0.00146
 PY  O  27  -0.00198    -0.00010    -0.00012     0.00006     0.17348     0.00180
 PZ  O  27  -0.00123    -0.00006    -0.00008     0.00005     0.69176     0.00107
  
  S  H  28   0.00047     0.00006     0.00004    -0.00002     0.00006    -0.00065
  
  S  H  29   0.00431     0.00012     0.00017    -0.00006    -0.00004    -0.00475
  
  S  O  30  -0.00000     0.00033    -0.00000     0.00000    -0.00000    -0.00000
 PX  O  30  -0.00000     0.00025    -0.00000     0.00000    -0.00000     0.00000
 PY  O  30  -0.00000     0.00050    -0.00000     0.00000     0.00000    -0.00000
 PZ  O  30   0.00000    -0.00007    -0.00000    -0.00000     0.00000    -0.00000
  
  S  H  31   0.00001    -0.00136     0.00000    -0.00001     0.00000     0.00000
  
  S  H  32   0.00001    -0.00051     0.00000    -0.00001     0.00000     0.00000
  
  S  O  33   0.00053     0.00008    -0.00224     0.00015     0.00000     0.00001
 PX  O  33  -0.00075    -0.00009     0.69655     0.00007     0.00000     0.00002
 PY  O  33  -0.00010     0.00030    -0.42621     0.00011    -0.00000    -0.00000
 PZ  O  33   0.00066     0.00042     0.57647     0.00019     0.00000     0.00000
  
  S  H  34  -0.00177     0.00004     0.00025    -0.00019    -0.00001    -0.00000
  
  S  H  35  -0.00111    -0.00033     0.00015    -0.00024    -0.00000    -0.00000
  
  S  O  36  -0.00115     0.00004    -0.00005     0.00041    -0.00007     0.00545
 PX  O  36   0.00241    -0.00010     0.00013    -0.00091     0.00011    -0.00771
 PY  O  36   0.00069    -0.00001     0.00003    -0.00001     0.00005    -0.00368
 PZ  O  36   0.00184    -0.00005     0.00009    -0.00024     0.00012    -0.00943
  
  S  H  37   0.00327    -0.00009     0.00011    -0.00075     0.00025    -0.02733
  
  S  H  38   0.00088    -0.00006     0.00004    -0.00083     0.00002    -0.00046
  
  S  O  39   0.00000    -0.00017    -0.00000     0.00000     0.00000    -0.00000
 PX  O  39  -0.00000     0.00018     0.00001    -0.00000    -0.00000     0.00000
 PY  O  39  -0.00000     0.00001     0.00000    -0.00000    -0.00000     0.00000
 PZ  O  39   0.00000    -0.00031    -0.00001     0.00000     0.00000    -0.00000
  
  S  H  40  -0.00000     0.00002     0.00000    -0.00000    -0.00000     0.00000
  
  S  H  41  -0.00001     0.00121     0.00001    -0.00001    -0.00000     0.00000
  
  S  O  42  -0.00021     0.00065    -0.00006     0.04405    -0.00001     0.00011
 PX  O  42   0.00022    -0.00002     0.00008     0.44240    -0.00000     0.00005
 PY  O  42   0.00027    -0.00025     0.00008     0.69383     0.00001    -0.00013
 PZ  O  42  -0.00015     0.00064    -0.00004    -0.55067    -0.00000     0.00006
  
  S  H  43   0.00018    -0.00132     0.00005    -0.00043     0.00001    -0.00005
  
  S  H  44   0.00022    -0.00133     0.00006    -0.00257     0.00001    -0.00025
  
  S  O  45  -0.01276     0.00028    -0.00048     0.00199    -0.00025     0.01017
 PX  O  45   0.02120    -0.00044     0.00106    -0.00305     0.00037    -0.58040
 PY  O  45   0.00132     0.00108    -0.00018     0.00563     0.00001    -0.35627
 PZ  O  45   0.01793     0.00017     0.00078     0.00017     0.00035     0.73052
  
  S  H  46   0.05620    -0.00007     0.00123    -0.00115     0.00109    -0.00057
  
  S  H  47   0.01308    -0.00131     0.00057    -0.00784     0.00025     0.00057
  
  S  O  48  -0.00000     0.00048    -0.00000     0.00001    -0.00000    -0.00000
 PX  O  48   0.00001    -0.00035     0.00000    -0.00001    -0.00000    -0.00000
 PY  O  48   0.00000     0.00083     0.00000     0.00001    -0.00001    -0.00001
 PZ  O  48  -0.00003    -0.00035    -0.00000    -0.00001     0.00001     0.00000
  
  S  H  49  -0.00002    -0.00078     0.00000    -0.00002    -0.00001     0.00001
  
  S  H  50  -0.00003    -0.00185     0.00000    -0.00003     0.00000     0.00002
  
  S  O  51  -0.00237     0.00312    -0.00094     0.02351    -0.00002     0.00029
 PX  O  51   0.00031    -0.00331     0.00086     0.03028    -0.00002     0.00021
 PY  O  51   0.00019     0.00250    -0.00045     0.03497     0.00002     0.00023
 PZ  O  51   0.00340    -0.00717     0.00188    -0.00933     0.00001    -0.00035
  
  S  H  52   0.00770    -0.01118     0.00387    -0.01540     0.00001    -0.00060
  
  S  H  53   0.00212    -0.00284     0.00061    -0.12055     0.00002    -0.00080
  
  S  O  54   0.00000    -0.00047    -0.00000    -0.00005    -0.00000    -0.00000
 PX  O  54  -0.00000     0.00049     0.00000     0.00005    -0.00000     0.00000
 PY  O  54  -0.00000     0.00027     0.00000     0.00003    -0.00000     0.00000
 PZ  O  54  -0.00000     0.00029     0.00000     0.00004    -0.00000     0.00000
  
  S  H  55  -0.00000     0.00158     0.00000     0.00017    -0.00000     0.00000
  
  S  H  56  -0.00000     0.00098     0.00000     0.00011     0.00000     0.00000
  
  S  H  57  -0.00015    -0.00563    -0.00068     0.00046     0.00002    -0.00001
  
  S  H  58  -0.00003    -0.01321    -0.00001     0.00037     0.00003    -0.00000




    ROOT NO.   73          74          75          76          77

            -9.17951    -9.12208    -8.91288    -8.74388    -8.69626
  
  
  S  C   1   0.00001     0.00000    -0.00080     0.00054    -0.00069
 PX  C   1  -0.00000     0.00000    -0.00279     0.00191    -0.00224
 PY  C   1  -0.00002     0.00000    -0.00252     0.00166    -0.00178
 PZ  C   1   0.00000     0.00000    -0.00272     0.00188    -0.00181
  
  S  O   2  -0.00002     0.00000    -0.00020     0.00013    -0.00017
 PX  O   2  -0.00003    -0.00000     0.00047    -0.00034     0.00041
 PY  O   2  -0.00000    -0.00000     0.00031    -0.00025     0.00026
 PZ  O   2  -0.00003    -0.00000     0.00120    -0.00089     0.00107
  
  S  N   3   0.00000    -0.00000     0.00216    -0.00139     0.00205
 PX  N   3   0.00001    -0.00000     0.00172    -0.00113     0.00182
 PY  N   3   0.00001     0.00000    -0.00160     0.00125    -0.00190
 PZ  N   3   0.00001     0.00000     0.00025     0.00010    -0.00032
  
  S  H   4  -0.00001     0.00000    -0.00195     0.00143    -0.00189
  
  S  C   5  -0.00007     0.00001    -0.01700     0.00971    -0.01384
 PX  C   5  -0.00001    -0.00000     0.00137    -0.00102     0.00198
 PY  C   5   0.00003    -0.00001     0.01795    -0.01151     0.01439
 PZ  C   5  -0.00013    -0.00001     0.01543    -0.00912     0.01175
  
  S  H   6   0.00008     0.00000     0.00031    -0.00029     0.00302
  
  S  C   7   0.00001    -0.00002     0.00455    -0.00347     0.00375
 PX  C   7   0.00003    -0.00002     0.00179     0.00100    -0.00452
 PY  C   7  -0.00000     0.00002     0.01830    -0.00416     0.00499
 PZ  C   7   0.00001    -0.00000     0.01045    -0.00421     0.00468
  
  S  H   8  -0.00001    -0.00002     0.01827    -0.01204     0.01411
  
  S  H   9  -0.00001    -0.00000     0.00115    -0.00116     0.00255
  
  S  C  10   0.00010    -0.00003    -0.00227     0.00374    -0.00822
 PX  C  10  -0.00003    -0.00013     0.30321    -0.11920     0.19960
 PY  C  10  -0.00017    -0.00010     0.41693    -0.16282     0.27489
 PZ  C  10   0.00005    -0.00008     0.19363    -0.07470     0.12823
  
  S  C  11  -0.00004    -0.00016     0.02882     0.00075    -0.00010
 PX  C  11   0.00008    -0.00021     0.33581     0.04885    -0.04045
 PY  C  11   0.00005     0.00009     0.56931     0.08136    -0.06697
 PZ  C  11  -0.00001    -0.00004     0.28448     0.04086    -0.03052
  
  S  H  12   0.00002     0.00004    -0.00397     0.00090     0.00002
  
  S  C  13  -0.00001     0.00026    -0.00088    -0.00959    -0.00097
 PX  C  13   0.00003     0.00014     0.14712     0.25536    -0.08597
 PY  C  13   0.00004     0.00032     0.25650     0.45865    -0.15355
 PZ  C  13   0.00003     0.00023     0.15876     0.27184    -0.09672
  
  S  H  14  -0.00000    -0.00011    -0.00082    -0.00074     0.00043
  
  S  C  15   0.00002    -0.00154     0.00564    -0.05289    -0.00490
 PX  C  15  -0.00007    -0.00178    -0.05213     0.32430     0.05655
 PY  C  15  -0.00008     0.00068    -0.08568     0.50910     0.08729
 PZ  C  15  -0.00003    -0.00038    -0.04490     0.32609     0.04652
  
  S  H  16   0.00001     0.00333     0.00086     0.00147    -0.00343
  
  S  C  17  -0.00050    -0.00010     0.00045    -0.00365     0.00007
 PX  C  17   0.00042    -0.00006     0.04602    -0.04701     0.38902
 PY  C  17  -0.00010     0.00020     0.05514    -0.05520     0.53194
 PZ  C  17  -0.00035     0.00000     0.03137    -0.03058     0.26993
  
  S  H  18   0.00093     0.00004     0.00065    -0.00046    -0.00068
  
  S  C  19   0.00004     0.00008    -0.01030     0.01608     0.01903
 PX  C  19   0.00001     0.00009    -0.12136     0.18807     0.31311
 PY  C  19   0.00003     0.00017    -0.14923     0.23797     0.38056
 PZ  C  19   0.00016    -0.00009    -0.09084     0.14443     0.23444
  
  S  H  20  -0.00015     0.00015     0.00703    -0.00878    -0.01210
  
  S  O  21  -0.00000     0.00028    -0.00007     0.00032     0.00008
 PX  O  21  -0.00000    -0.34014    -0.00007     0.00060     0.00004
 PY  O  21  -0.00000    -0.22122     0.00004    -0.00041     0.00002
 PZ  O  21  -0.00000     0.91398    -0.00005     0.00008     0.00008
  
  S  H  22   0.00000    -0.00003     0.00018    -0.00112    -0.00018
  
  S  H  23   0.00000     0.00002     0.00022    -0.00116    -0.00021
  
  S  O  24  -0.00004    -0.00000    -0.00016     0.00007     0.00030
 PX  O  24  -0.00003    -0.00000     0.00007    -0.00000     0.00000
 PY  O  24  -0.00004    -0.00000    -0.00019     0.00010    -0.00001
 PZ  O  24  -0.00001    -0.00000     0.00024    -0.00015    -0.00034
  
  S  H  25   0.00004     0.00000     0.00053    -0.00011    -0.00156
  
  S  H  26   0.00004     0.00000     0.00042    -0.00014    -0.00049
  
  S  O  27  -0.00000    -0.00000    -0.00086     0.00139     0.00699
 PX  O  27   0.00001    -0.00000    -0.00032    -0.00011    -0.00761
 PY  O  27  -0.00001     0.00001    -0.00014     0.00112     0.00595
 PZ  O  27  -0.00000    -0.00000    -0.00106     0.00184     0.00661
  
  S  H  28  -0.00001     0.00001     0.00308    -0.00416    -0.01237
  
  S  H  29  -0.00000     0.00000     0.00207    -0.00217    -0.03101
  
  S  O  30   0.00000    -0.00000     0.00000     0.00001    -0.00004
 PX  O  30   0.00000    -0.00000    -0.00002     0.00000    -0.00002
 PY  O  30   0.00000    -0.00000    -0.00005     0.00000    -0.00004
 PZ  O  30  -0.00000     0.00000     0.00000    -0.00000     0.00001
  
  S  H  31  -0.00000     0.00000     0.00004    -0.00002     0.00007
  
  S  H  32  -0.00000     0.00000     0.00001    -0.00004     0.00012
  
  S  O  33  -0.00000    -0.00000    -0.00001     0.00001     0.00000
 PX  O  33  -0.00000    -0.00000     0.00000     0.00000     0.00000
 PY  O  33  -0.00000     0.00000    -0.00001     0.00000    -0.00001
 PZ  O  33  -0.00000    -0.00000    -0.00002     0.00001    -0.00000
  
  S  H  34   0.00000     0.00000     0.00003    -0.00001    -0.00001
  
  S  H  35   0.00000     0.00000     0.00004    -0.00002    -0.00000
  
  S  O  36  -0.00289    -0.00000     0.00008    -0.00011    -0.00038
 PX  O  36  -0.01453     0.00000    -0.00011     0.00017     0.00052
 PY  O  36   0.93400     0.00000    -0.00004     0.00006     0.00017
 PZ  O  36  -0.35695     0.00000    -0.00010     0.00020     0.00039
  
  S  H  37  -0.00008     0.00000    -0.00037     0.00044     0.00214
  
  S  H  38  -0.00003     0.00000    -0.00012     0.00014     0.00048
  
  S  O  39   0.00000    -0.00000     0.00003    -0.00002     0.00003
 PX  O  39  -0.00000     0.00000    -0.00005     0.00003    -0.00004
 PY  O  39  -0.00000     0.00000    -0.00002     0.00002    -0.00002
 PZ  O  39   0.00000    -0.00000     0.00005    -0.00004     0.00005
  
  S  H  40  -0.00000     0.00000    -0.00004     0.00003    -0.00003
  
  S  H  41  -0.00000     0.00000    -0.00012     0.00010    -0.00012
  
  S  O  42  -0.00065    -0.00000    -0.00007     0.00005    -0.00019
 PX  O  42  -0.00092    -0.00000    -0.00004     0.00003    -0.00017
 PY  O  42   0.00037     0.00000     0.00001    -0.00000     0.00004
 PZ  O  42  -0.00050    -0.00000    -0.00003     0.00002    -0.00009
  
  S  H  43   0.00044     0.00000     0.00013    -0.00011     0.00027
  
  S  H  44   0.00291     0.00000     0.00017    -0.00016     0.00090
  
  S  O  45  -0.00047    -0.00000    -0.00006     0.00000     0.00054
 PX  O  45   0.00059     0.00000     0.00009    -0.00000    -0.00101
 PY  O  45  -0.00098    -0.00000    -0.00007     0.00004    -0.00023
 PZ  O  45   0.00003     0.00000    -0.00001    -0.00005    -0.00072
  
  S  H  46   0.00040     0.00000     0.00029     0.00016    -0.00323
  
  S  H  47   0.00249     0.00000     0.00021    -0.00006    -0.00056
  
  S  O  48   0.00000    -0.00000     0.00133    -0.00013     0.00013
 PX  O  48  -0.00000    -0.00000    -0.00051    -0.00008     0.00059
 PY  O  48   0.00000    -0.00000     0.00134    -0.00004    -0.00005
 PZ  O  48  -0.00000     0.00000    -0.00242     0.00011     0.00010
  
  S  H  49  -0.00000     0.00000    -0.00572     0.00072    -0.00037
  
  S  H  50  -0.00000     0.00000    -0.00424     0.00069    -0.00038
  
  S  O  51  -0.00032    -0.00000    -0.00012     0.00008    -0.00011
 PX  O  51  -0.00039    -0.00000     0.00005    -0.00003    -0.00001
 PY  O  51  -0.00016     0.00000    -0.00011     0.00008    -0.00020
 PZ  O  51   0.00017     0.00000     0.00023    -0.00016     0.00018
  
  S  H  52   0.00024     0.00000     0.00045    -0.00028     0.00024
  
  S  H  53   0.00099     0.00000     0.00021    -0.00016     0.00041
  
  S  O  54  -0.00000    -0.00000    -0.00000     0.00000    -0.00000
 PX  O  54   0.00000     0.00000    -0.00001     0.00000    -0.00001
 PY  O  54   0.00000     0.00000     0.00000    -0.00000     0.00000
 PZ  O  54   0.00000     0.00000     0.00001    -0.00000     0.00000
  
  S  H  55   0.00000     0.00000    -0.00000     0.00000    -0.00001
  
  S  H  56   0.00000     0.00000     0.00001    -0.00001     0.00001
  
  S  H  57  -0.00001    -0.00000     0.00088    -0.00063     0.00081
  
  S  H  58   0.00000    -0.00000     0.00279    -0.00107     0.00193

          BONDING CONTRIBUTION OF EACH M.O.

  1.7573  1.9039  1.7175  1.8395  1.6866  0.0005  1.7319  0.0558  1.7349  0.0037
  1.7367  1.6827  1.7501  1.5754  1.5694  1.6844  0.0288  1.6733  1.6888  1.6878
  0.0236  1.8857  0.0542  1.6723  1.5325  1.9933  1.9974  1.9947  1.6093  0.0001
  1.9919  0.0051  1.6531  1.9979  1.5640  1.6136  1.7098  0.0001  1.6741  1.9952
  0.0004  0.0002  0.0643  1.6229  1.6870  1.7213  0.0013  1.9952  1.5637  1.9904
  1.9668  1.9388  1.9263  1.9522  1.9445  1.9383  1.9307  1.9645  1.9565  1.1452
  0.0051  0.0012  0.0003  0.3129  0.0000  0.1187  0.0281  0.9425  0.0054  0.1128
  0.0016  0.0152  0.0001  0.0001  1.9398  2.0168  2.0146 -1.9928 -2.0130 -2.0101
 -1.9441 -1.7150 -1.9884 -1.6989 -1.7937 -1.6694 -1.9366 -2.0036 -1.6439 -1.7252
 -1.8332 -1.8941 -1.7534 -1.7882 -1.8587 -1.8657 -1.8149 -1.8672 -1.7377 -1.8539
 -1.7269 -1.6875 -1.9094 -2.0047 -1.8596 -1.8325 -1.9831 -1.9506 -1.9273 -1.9621
 -1.8332 -1.7528 -1.9328 -1.9063 -1.6666 -1.9167 -1.7589 -1.6667 -1.9468 -1.7123
 -1.9245 -1.7232 -1.6731 -1.6957 -1.6656 -1.6173 -1.6646

           DATA FOR GRAPH WRITTEN TO DISK

 **********************
 *                    *
 * JOB ENDED NORMALLY *
 *                    *
 **********************



 TOTAL JOB TIME:             0.49 SECONDS

 == MOPAC DONE ==
