 *******************************************************************************
 ** Site#: 34139        For non-commercial use only    Version 20.070L 64BITS **
 *******************************************************************************
 ** Cite this program as: MOPAC2016, Version: 20.070L, James J. P. Stewart,   **
 ** Stewart Computational Chemistry, web: HTTP://OpenMOPAC.net. Days left: 322**
 *******************************************************************************
 **                                                                           **
 **                                MOPAC2016                                  **
 **                                                                           **
 *******************************************************************************

                              PM7 CALCULATION RESULTS

 *******************************************************************************
 *  CALCULATION DONE:                                Thu Apr 23 13:26:48 2020  *
 *  PM7        - The PM7 Hamiltonian to be used
 *  QMMM       - Generate energies and gradients for use in MM codes
 *  DIPOLE     - PRINT DIPOLE INSTEAD OF ENERGY IN TRAJECTORIES
 *  GEO-OK     - OVERRIDE INTERATOMIC DISTANCE AND OTHER SAFETY CHECKS
 *
 *
 *
 *                 CHARGE ON SYSTEM = 0
 *
 *
 *
 *  LET        - OVERRIDE SOME SAFETY CHECKS
 *  XYZ        - CARTESIAN COORDINATE SYSTEM TO BE USED
 *  FORCE      - FORCE CALCULATION SPECIFIED
 *  1SCF       - DO 1 SCF AND THEN STOP 
 *  T=         - A TIME OF      2.0 MINUTES REQUESTED
 *  DUMP=N     - RESTART FILE WRITTEN EVERY  7200.000 SECONDS
 *  CUTOFF=    - CUTOFF FOR NDDO AND DIPOLE INTERACTIONS =  9.00A
 *  AUX        - OUTPUT AUXILIARY INFORMATION
 *  GRADIENTS  - ALL GRADIENTS TO BE PRINTED
 *  VECTORS    - FINAL EIGENVECTORS TO BE PRINTED
 *  EIGEN      - CONVERT LMO's INTO EIGENVECTORS
 *  LARGE      - EXPANDED OUTPUT TO BE PRINTED
 *  AIGOUT     - IN ARC FILE, INCLUDE AB-INITIO GEOMETRY
 *  GRAPH      - GENERATE FILE FOR GRAPHICS
 *  LOCALIZE   - LOCALIZED ORBITALS TO BE PRINTED
 *  PI         - BONDS MATRIX, SPLIT INTO SIGMA-PI-DELL COMPONENTS, TO BE PRINTED
 *******************************************************************************
PM7 XYZ T=2M 1SCF LOCALIZE AIGOUT GRAPH GRAPHF LARGE DIPOLE PI FORCE CUTOFF=9.0 AUX LET GRAD QMMM GEO-OK EIGEN VECTORS CHARGE=0
 Test System

   ATOM   CHEMICAL          X               Y               Z
  NUMBER   SYMBOL      (ANGSTROMS)     (ANGSTROMS)     (ANGSTROMS)
 
     1       C         -3.53306300  *   0.59670800  *   0.57114800  *
     2       O         -3.69606500  *  -0.52174100  *   1.08728800  *
     3       N         -2.32301000  *   1.02790400  *   0.14525000  *
     4       H         -2.24361400  *   1.97518900  *  -0.27336800  *
     5       C         -1.07440200  *   0.28689200  *   0.37744800  *
     6       H         -1.03230900  *  -0.03332200  *   1.44189700  *
     7       C         -1.07352200  *  -0.97361100  *  -0.53015400  *
     8       H         -1.96779700  *  -1.60866400  *  -0.29610900  *
     9       H         -1.22962200  *  -0.62783900  *  -1.58267200  *
    10       C          0.16147200  *  -1.80026300  *  -0.46192400  *
    11       C          1.02385300  *  -1.93453500  *  -1.58122300  *
    12       H          0.78005300  *  -1.38118800  *  -2.51231400  *
    13       C          2.13232400  *  -2.71314800  *  -1.50800700  *
    14       H          2.80505000  *  -2.82298000  *  -2.39057100  *
    15       C          2.47314700  *  -3.38971100  *  -0.34242800  *
    16       H          3.35645300  *  -4.03685200  *  -0.28316600  *
    17       C          0.53409400  *  -2.44166100  *   0.73568400  *
    18       H         -0.09210100  *  -2.30923100  *   1.62259100  *
    19       C          1.65449100  *  -3.22900300  *   0.79611300  *
    20       H          1.92637200  *  -3.74767600  *   1.71651800  *
    21       O          4.41795200  *  -6.40481900  *  -1.50898600  *
    22       H          5.23928900  *  -5.95776300  *  -1.23628800  *
    23       H          4.72019500  *  -7.31296300  *  -1.65559300  *
    24       O         -3.61351300  *  -4.12739800  *   1.31478900  *
    25       H         -3.41993700  *  -4.18424900  *   0.31844100  *
    26       H         -4.22281700  *  -3.37266700  *   1.38627400  *
    27       O         -0.29400600  *  -5.67660800  *   0.37722600  *
    28       H         -1.12155500  *  -6.15736800  *   0.64787200  *
    29       H         -0.22847200  *  -4.96371300  *   1.02099000  *
    30       O         -1.97543200  *   0.62886400  *  -3.85843000  *
    31       H         -1.25779900  *   1.28118400  *  -3.69498100  *
    32       H         -2.58102000  *   1.13589400  *  -4.43528200  *
    33       O         -5.62461700  *  -2.16257900  *   2.51687600  *
    34       H         -6.54519500  *  -2.42925200  *   2.75268200  *
    35       H         -5.44073300  *  -1.37215400  *   3.03557600  *
    36       O          0.59625500  *  -2.87734400  *   4.95287000  *
    37       H         -0.08776000  *  -3.06389200  *   4.29129900  *
    38       H          0.07543400  *  -2.38520000  *   5.64239600  *
    39       O         -2.30922400  *   3.77227200  *  -2.43632200  *
    40       H         -2.82343300  *   3.57832300  *  -3.24963700  *
    41       H         -2.96283000  *   3.79158200  *  -1.70486900  *
    42       O         -0.83458900  *   0.42699500  *   3.65176500  *
    43       H         -0.98353400  *   1.35156900  *   3.92497000  *
    44       H          0.13086500  *   0.27875800  *   3.84232900  *
    45       O         -1.73798900  *  -3.81873800  *   3.21078800  *
    46       H         -2.26701400  *  -4.12456800  *   2.45325800  *
    47       H         -2.07096900  *  -2.89552300  *   3.33895900  *
    48       O         -1.96424300  *  -2.99708100  *  -3.19403200  *
    49       H         -1.87773200  *  -3.24375600  *  -4.13908600  *
    50       H         -2.08923800  *  -2.03245700  *  -3.27121300  *
    51       O         -2.78631900  *  -1.39829500  *   3.44947700  *
    52       H         -3.14759200  *  -1.15007300  *   2.56046100  *
    53       H         -2.11077200  *  -0.71036300  *   3.60337600  *
    54       O         -0.72789000  *   4.44299500  *   0.82216700  *
    55       H         -1.71141800  *   4.23347000  *   0.63172300  *
    56       H         -0.30153300  *   3.99593200  *   0.08281000  *
    57       H         -4.39247500  *   1.25365700  *   0.43725100  *
    58       H         -0.22476000  *   0.93163400  *   0.15269100  *
 


          CARTESIAN COORDINATES 

    NO.       ATOM           X           Y           Z

     1         C         -3.5331      0.5967      0.5711
     2         O         -3.6961     -0.5217      1.0873
     3         N         -2.3230      1.0279      0.1453
     4         H         -2.2436      1.9752     -0.2734
     5         C         -1.0744      0.2869      0.3774
     6         H         -1.0323     -0.0333      1.4419
     7         C         -1.0735     -0.9736     -0.5302
     8         H         -1.9678     -1.6087     -0.2961
     9         H         -1.2296     -0.6278     -1.5827
    10         C          0.1615     -1.8003     -0.4619
    11         C          1.0239     -1.9345     -1.5812
    12         H          0.7801     -1.3812     -2.5123
    13         C          2.1323     -2.7131     -1.5080
    14         H          2.8051     -2.8230     -2.3906
    15         C          2.4731     -3.3897     -0.3424
    16         H          3.3565     -4.0369     -0.2832
    17         C          0.5341     -2.4417      0.7357
    18         H         -0.0921     -2.3092      1.6226
    19         C          1.6545     -3.2290      0.7961
    20         H          1.9264     -3.7477      1.7165
    21         O          4.4180     -6.4048     -1.5090
    22         H          5.2393     -5.9578     -1.2363
    23         H          4.7202     -7.3130     -1.6556
    24         O         -3.6135     -4.1274      1.3148
    25         H         -3.4199     -4.1842      0.3184
    26         H         -4.2228     -3.3727      1.3863
    27         O         -0.2940     -5.6766      0.3772
    28         H         -1.1216     -6.1574      0.6479
    29         H         -0.2285     -4.9637      1.0210
    30         O         -1.9754      0.6289     -3.8584
    31         H         -1.2578      1.2812     -3.6950
    32         H         -2.5810      1.1359     -4.4353
    33         O         -5.6246     -2.1626      2.5169
    34         H         -6.5452     -2.4293      2.7527
    35         H         -5.4407     -1.3722      3.0356
    36         O          0.5963     -2.8773      4.9529
    37         H         -0.0878     -3.0639      4.2913
    38         H          0.0754     -2.3852      5.6424
    39         O         -2.3092      3.7723     -2.4363
    40         H         -2.8234      3.5783     -3.2496
    41         H         -2.9628      3.7916     -1.7049
    42         O         -0.8346      0.4270      3.6518
    43         H         -0.9835      1.3516      3.9250
    44         H          0.1309      0.2788      3.8423
    45         O         -1.7380     -3.8187      3.2108
    46         H         -2.2670     -4.1246      2.4533
    47         H         -2.0710     -2.8955      3.3390
    48         O         -1.9642     -2.9971     -3.1940
    49         H         -1.8777     -3.2438     -4.1391
    50         H         -2.0892     -2.0325     -3.2712
    51         O         -2.7863     -1.3983      3.4495
    52         H         -3.1476     -1.1501      2.5605
    53         H         -2.1108     -0.7104      3.6034
    54         O         -0.7279      4.4430      0.8222
    55         H         -1.7114      4.2335      0.6317
    56         H         -0.3015      3.9959      0.0828
    57         H         -4.3925      1.2537      0.4373
    58         H         -0.2248      0.9316      0.1527

 General Reference for PM7:
 "Optimization of Parameters for Semiempirical Methods VI: More Modifications to the 
 NDDO Approximations and Re-optimization of Parameters", J. J. P. Stewart, J. Mol. Mod., 1:32, 19 (2013)
 http://www.springerlink.com/openurl.asp?genre=article&id=doi:10.1007/s00894-012-1667-x

           Empirical Formula: C9 H35 N O13  =    58 atoms



      MOLECULAR POINT GROUP   :   C1  


      RHF CALCULATION, NO. OF DOUBLY OCCUPIED LEVELS = 77


 -------------------------------------------------------------------------------
 PM7 XYZ T=2M 1SCF LOCALIZE AIGOUT GRAPH GRAPHF LARGE DIPOLE PI FORCE CUTOFF=9.0 AUX LET GRAD QMMM GEO-OK EIGEN VECTORS CHARGE=0
 Test System



     1SCF WAS SPECIFIED, SO BFGS WAS NOT USED                 
     SCF FIELD WAS ACHIEVED                                   


                              PM7 CALCULATION
                                                       MOPAC2016 (Version: 20.070L)
                                                       Thu Apr 23 13:26:48 2020
                                                       No. of days remaining = 322




          FINAL HEAT OF FORMATION =       -975.17960 KCAL/MOL =   -4080.15146 KJ/MOL


          TOTAL ENERGY            =      -5617.03984 EV
          ELECTRONIC ENERGY       =     -40098.49871 EV  POINT GROUP:     C1  
          CORE-CORE REPULSION     =      34481.45886 EV
          COSMO AREA              =        445.07 SQUARE ANGSTROMS
          COSMO VOLUME            =        558.67 CUBIC ANGSTROMS

          GRADIENT NORM           =        182.50398 = 23.96395 PER ATOM
          IONIZATION POTENTIAL    =          8.925388 EV
          HOMO LUMO ENERGIES (EV) =         -8.925  0.530
          NO. OF FILLED LEVELS    =         77
          MOLECULAR WEIGHT        =        365.3744

          MOLECULAR DIMENSIONS (Angstroms)

            Atom       Atom       Distance
            H    41    H    23    13.50342
            H    38    H    32    10.06316
            H    34    H    56     8.83679


          SCF CALCULATIONS        =          1
 
          WALL-CLOCK TIME         =          0.145 SECONDS
          COMPUTATION TIME        =          0.136 SECONDS

          LARGEST ATOMIC GRADIENTS

          Atom     Label                     Cartesian Gradients           Cartesian Coordinates       |Gradient|
                                           X          Y          Z        X          Y          Z

            11       C                  54.599    -36.054     -6.055    1.02385   -1.93453   -1.58122     65.709
            13       C                 -47.020     25.485     12.978    2.13232   -2.71315   -1.50801     55.035
            54       O                  37.650     20.005     19.586   -0.72789    4.44299    0.82217     46.918
            24       O                  -1.083      0.084     41.399   -3.61351   -4.12740    1.31479     41.414
            19       C                 -32.874     18.210     12.840    1.65449   -3.22900    0.79611     39.714
            17       C                  29.556    -21.243      9.554    0.53409   -2.44166    0.73568     37.631
            55       H                 -31.923    -13.958    -13.758   -1.71142    4.23347    0.63172     37.459
             1       C                  -4.961     33.196    -14.427   -3.53306    0.59671    0.57115     36.534
            42       O                 -21.957    -21.618     -6.839   -0.83459    0.42700    3.65177     31.562
            36       O                  19.709    -19.046    -12.305    0.59625   -2.87734    4.95287     30.044



       FINAL  POINT  AND  DERIVATIVES

   PARAMETER     ATOM    TYPE            VALUE        GRADIENT
      1          1  C    CARTESIAN X    -3.533063     -4.961439  KCAL/ANGSTROM
      2          1  C    CARTESIAN Y     0.596708     33.196440  KCAL/ANGSTROM
      3          1  C    CARTESIAN Z     0.571148    -14.427242  KCAL/ANGSTROM
      4          2  O    CARTESIAN X    -3.696065     -0.734971  KCAL/ANGSTROM
      5          2  O    CARTESIAN Y    -0.521741    -27.289648  KCAL/ANGSTROM
      6          2  O    CARTESIAN Z     1.087288      9.404934  KCAL/ANGSTROM
      7          3  N    CARTESIAN X    -2.323010      0.058408  KCAL/ANGSTROM
      8          3  N    CARTESIAN Y     1.027904    -25.317615  KCAL/ANGSTROM
      9          3  N    CARTESIAN Z     0.145250      1.216157  KCAL/ANGSTROM
     10          4  H    CARTESIAN X    -2.243614     -6.708805  KCAL/ANGSTROM
     11          4  H    CARTESIAN Y     1.975189     16.160730  KCAL/ANGSTROM
     12          4  H    CARTESIAN Z    -0.273368     -0.915981  KCAL/ANGSTROM
     13          5  C    CARTESIAN X    -1.074402     19.589095  KCAL/ANGSTROM
     14          5  C    CARTESIAN Y     0.286892     17.694593  KCAL/ANGSTROM
     15          5  C    CARTESIAN Z     0.377448      3.452498  KCAL/ANGSTROM
     16          6  H    CARTESIAN X    -1.032309     -3.209193  KCAL/ANGSTROM
     17          6  H    CARTESIAN Y    -0.033322      1.604001  KCAL/ANGSTROM
     18          6  H    CARTESIAN Z     1.441897     -2.454856  KCAL/ANGSTROM
     19          7  C    CARTESIAN X    -1.073522      3.020379  KCAL/ANGSTROM
     20          7  C    CARTESIAN Y    -0.973611     -6.668165  KCAL/ANGSTROM
     21          7  C    CARTESIAN Z    -0.530154     10.951067  KCAL/ANGSTROM
     22          8  H    CARTESIAN X    -1.967797     -4.680857  KCAL/ANGSTROM
     23          8  H    CARTESIAN Y    -1.608664     -1.374831  KCAL/ANGSTROM
     24          8  H    CARTESIAN Z    -0.296109     -0.762441  KCAL/ANGSTROM
     25          9  H    CARTESIAN X    -1.229622      2.525483  KCAL/ANGSTROM
     26          9  H    CARTESIAN Y    -0.627839      3.998823  KCAL/ANGSTROM
     27          9  H    CARTESIAN Z    -1.582672     -1.258842  KCAL/ANGSTROM
     28         10  C    CARTESIAN X     0.161472    -23.938250  KCAL/ANGSTROM
     29         10  C    CARTESIAN Y    -1.800263      1.778720  KCAL/ANGSTROM
     30         10  C    CARTESIAN Z    -0.461924     -1.940451  KCAL/ANGSTROM
     31         11  C    CARTESIAN X     1.023853     54.599118  KCAL/ANGSTROM
     32         11  C    CARTESIAN Y    -1.934535    -36.053933  KCAL/ANGSTROM
     33         11  C    CARTESIAN Z    -1.581223     -6.055121  KCAL/ANGSTROM
     34         12  H    CARTESIAN X     0.780053     -0.977946  KCAL/ANGSTROM
     35         12  H    CARTESIAN Y    -1.381188      8.101373  KCAL/ANGSTROM
     36         12  H    CARTESIAN Z    -2.512314     -9.322424  KCAL/ANGSTROM
     37         13  C    CARTESIAN X     2.132324    -47.020033  KCAL/ANGSTROM
     38         13  C    CARTESIAN Y    -2.713148     25.485039  KCAL/ANGSTROM
     39         13  C    CARTESIAN Z    -1.508007     12.978359  KCAL/ANGSTROM
     40         14  H    CARTESIAN X     2.805050      8.093429  KCAL/ANGSTROM
     41         14  H    CARTESIAN Y    -2.822980     -0.224815  KCAL/ANGSTROM
     42         14  H    CARTESIAN Z    -2.390571     -8.681675  KCAL/ANGSTROM
     43         15  C    CARTESIAN X     2.473147      6.689094  KCAL/ANGSTROM
     44         15  C    CARTESIAN Y    -3.389711      0.209344  KCAL/ANGSTROM
     45         15  C    CARTESIAN Z    -0.342428    -21.922320  KCAL/ANGSTROM
     46         16  H    CARTESIAN X     3.356453      6.661173  KCAL/ANGSTROM
     47         16  H    CARTESIAN Y    -4.036852     -3.369430  KCAL/ANGSTROM
     48         16  H    CARTESIAN Z    -0.283166      2.291899  KCAL/ANGSTROM
     49         17  C    CARTESIAN X     0.534094     29.556062  KCAL/ANGSTROM
     50         17  C    CARTESIAN Y    -2.441661    -21.242834  KCAL/ANGSTROM
     51         17  C    CARTESIAN Z     0.735684      9.554467  KCAL/ANGSTROM
     52         18  H    CARTESIAN X    -0.092101     -0.015892  KCAL/ANGSTROM
     53         18  H    CARTESIAN Y    -2.309231      2.266315  KCAL/ANGSTROM
     54         18  H    CARTESIAN Z     1.622591      0.929419  KCAL/ANGSTROM
     55         19  C    CARTESIAN X     1.654491    -32.874474  KCAL/ANGSTROM
     56         19  C    CARTESIAN Y    -3.229003     18.210078  KCAL/ANGSTROM
     57         19  C    CARTESIAN Z     0.796113     12.839856  KCAL/ANGSTROM
     58         20  H    CARTESIAN X     1.926372      0.766519  KCAL/ANGSTROM
     59         20  H    CARTESIAN Y    -3.747676     -0.793543  KCAL/ANGSTROM
     60         20  H    CARTESIAN Z     1.716518      0.292945  KCAL/ANGSTROM
     61         21  O    CARTESIAN X     4.417952    -21.124416  KCAL/ANGSTROM
     62         21  O    CARTESIAN Y    -6.404819      5.692505  KCAL/ANGSTROM
     63         21  O    CARTESIAN Z    -1.508986     -1.003524  KCAL/ANGSTROM
     64         22  H    CARTESIAN X     5.239289     10.893808  KCAL/ANGSTROM
     65         22  H    CARTESIAN Y    -5.957763     -1.586378  KCAL/ANGSTROM
     66         22  H    CARTESIAN Z    -1.236288      1.128111  KCAL/ANGSTROM
     67         23  H    CARTESIAN X     4.720195      9.411901  KCAL/ANGSTROM
     68         23  H    CARTESIAN Y    -7.312963     -4.681166  KCAL/ANGSTROM
     69         23  H    CARTESIAN Z    -1.655593      0.019697  KCAL/ANGSTROM
     70         24  O    CARTESIAN X    -3.613513     -1.083032  KCAL/ANGSTROM
     71         24  O    CARTESIAN Y    -4.127398      0.084364  KCAL/ANGSTROM
     72         24  O    CARTESIAN Z     1.314789     41.399350  KCAL/ANGSTROM
     73         25  H    CARTESIAN X    -3.419937      1.972124  KCAL/ANGSTROM
     74         25  H    CARTESIAN Y    -4.184249     -1.418122  KCAL/ANGSTROM
     75         25  H    CARTESIAN Z     0.318441    -29.553498  KCAL/ANGSTROM
     76         26  H    CARTESIAN X    -4.222817     -4.699213  KCAL/ANGSTROM
     77         26  H    CARTESIAN Y    -3.372667      2.458549  KCAL/ANGSTROM
     78         26  H    CARTESIAN Z     1.386274    -11.592580  KCAL/ANGSTROM
     79         27  O    CARTESIAN X    -0.294006     22.881103  KCAL/ANGSTROM
     80         27  O    CARTESIAN Y    -5.676608      8.963817  KCAL/ANGSTROM
     81         27  O    CARTESIAN Z     0.377226    -13.429318  KCAL/ANGSTROM
     82         28  H    CARTESIAN X    -1.121555    -17.952381  KCAL/ANGSTROM
     83         28  H    CARTESIAN Y    -6.157368     -7.773025  KCAL/ANGSTROM
     84         28  H    CARTESIAN Z     0.647872      7.791158  KCAL/ANGSTROM
     85         29  H    CARTESIAN X    -0.228472     -3.747733  KCAL/ANGSTROM
     86         29  H    CARTESIAN Y    -4.963713     -1.726597  KCAL/ANGSTROM
     87         29  H    CARTESIAN Z     1.020990      3.541645  KCAL/ANGSTROM
     88         30  O    CARTESIAN X    -1.975432     -0.048579  KCAL/ANGSTROM
     89         30  O    CARTESIAN Y     0.628864    -24.364332  KCAL/ANGSTROM
     90         30  O    CARTESIAN Z    -3.858430      5.523843  KCAL/ANGSTROM
     91         31  H    CARTESIAN X    -1.257799      4.824432  KCAL/ANGSTROM
     92         31  H    CARTESIAN Y     1.281184     12.902313  KCAL/ANGSTROM
     93         31  H    CARTESIAN Z    -3.694981     -1.420483  KCAL/ANGSTROM
     94         32  H    CARTESIAN X    -2.581020     -4.944526  KCAL/ANGSTROM
     95         32  H    CARTESIAN Y     1.135894     13.585424  KCAL/ANGSTROM
     96         32  H    CARTESIAN Z    -4.435282     -5.178945  KCAL/ANGSTROM
     97         33  O    CARTESIAN X    -5.624617     26.707158  KCAL/ANGSTROM
     98         33  O    CARTESIAN Y    -2.162579     -2.190633  KCAL/ANGSTROM
     99         33  O    CARTESIAN Z     2.516876     -5.183024  KCAL/ANGSTROM
    100         34  H    CARTESIAN X    -6.545195    -19.290746  KCAL/ANGSTROM
    101         34  H    CARTESIAN Y    -2.429252     -2.371471  KCAL/ANGSTROM
    102         34  H    CARTESIAN Z     2.752682      3.954494  KCAL/ANGSTROM
    103         35  H    CARTESIAN X    -5.440733     -7.623919  KCAL/ANGSTROM
    104         35  H    CARTESIAN Y    -1.372154      7.873362  KCAL/ANGSTROM
    105         35  H    CARTESIAN Z     3.035576      4.601967  KCAL/ANGSTROM
    106         36  O    CARTESIAN X     0.596255     19.708913  KCAL/ANGSTROM
    107         36  O    CARTESIAN Y    -2.877344    -19.046200  KCAL/ANGSTROM
    108         36  O    CARTESIAN Z     4.952870    -12.305023  KCAL/ANGSTROM
    109         37  H    CARTESIAN X    -0.087760     -5.479304  KCAL/ANGSTROM
    110         37  H    CARTESIAN Y    -3.063892      9.263800  KCAL/ANGSTROM
    111         37  H    CARTESIAN Z     4.291299      2.459639  KCAL/ANGSTROM
    112         38  H    CARTESIAN X     0.075434    -13.842729  KCAL/ANGSTROM
    113         38  H    CARTESIAN Y    -2.385200     12.560347  KCAL/ANGSTROM
    114         38  H    CARTESIAN Z     5.642396     11.310611  KCAL/ANGSTROM
    115         39  O    CARTESIAN X    -2.309224     21.972467  KCAL/ANGSTROM
    116         39  O    CARTESIAN Y     3.772272     11.359586  KCAL/ANGSTROM
    117         39  O    CARTESIAN Z    -2.436322     -6.190189  KCAL/ANGSTROM
    118         40  H    CARTESIAN X    -2.823433     -9.537398  KCAL/ANGSTROM
    119         40  H    CARTESIAN Y     3.578323     -6.007148  KCAL/ANGSTROM
    120         40  H    CARTESIAN Z    -3.249637    -10.489363  KCAL/ANGSTROM
    121         41  H    CARTESIAN X    -2.962830     -9.465809  KCAL/ANGSTROM
    122         41  H    CARTESIAN Y     3.791582     -4.963489  KCAL/ANGSTROM
    123         41  H    CARTESIAN Z    -1.704869     15.282757  KCAL/ANGSTROM
    124         42  O    CARTESIAN X    -0.834589    -21.956815  KCAL/ANGSTROM
    125         42  O    CARTESIAN Y     0.426995    -21.617642  KCAL/ANGSTROM
    126         42  O    CARTESIAN Z     3.651765     -6.838552  KCAL/ANGSTROM
    127         43  H    CARTESIAN X    -0.983534      3.314731  KCAL/ANGSTROM
    128         43  H    CARTESIAN Y     1.351569     11.933325  KCAL/ANGSTROM
    129         43  H    CARTESIAN Z     3.924970      3.252936  KCAL/ANGSTROM
    130         44  H    CARTESIAN X     0.130865     16.971269  KCAL/ANGSTROM
    131         44  H    CARTESIAN Y     0.278758      6.944249  KCAL/ANGSTROM
    132         44  H    CARTESIAN Z     3.842329      3.602246  KCAL/ANGSTROM
    133         45  O    CARTESIAN X    -1.737989     -4.116105  KCAL/ANGSTROM
    134         45  O    CARTESIAN Y    -3.818738     -6.590187  KCAL/ANGSTROM
    135         45  O    CARTESIAN Z     3.210788      7.058917  KCAL/ANGSTROM
    136         46  H    CARTESIAN X    -2.267014      3.294626  KCAL/ANGSTROM
    137         46  H    CARTESIAN Y    -4.124568     -2.391026  KCAL/ANGSTROM
    138         46  H    CARTESIAN Z     2.453258     -7.165130  KCAL/ANGSTROM
    139         47  H    CARTESIAN X    -2.070969      3.210017  KCAL/ANGSTROM
    140         47  H    CARTESIAN Y    -2.895523      8.417023  KCAL/ANGSTROM
    141         47  H    CARTESIAN Z     3.338959     -0.186255  KCAL/ANGSTROM
    142         48  O    CARTESIAN X    -1.964243      3.428037  KCAL/ANGSTROM
    143         48  O    CARTESIAN Y    -2.997081    -15.911359  KCAL/ANGSTROM
    144         48  O    CARTESIAN Z    -3.194032     25.244554  KCAL/ANGSTROM
    145         49  H    CARTESIAN X    -1.877732     -0.355874  KCAL/ANGSTROM
    146         49  H    CARTESIAN Y    -3.243756      6.946859  KCAL/ANGSTROM
    147         49  H    CARTESIAN Z    -4.139086    -15.094467  KCAL/ANGSTROM
    148         50  H    CARTESIAN X    -2.089238     -2.066982  KCAL/ANGSTROM
    149         50  H    CARTESIAN Y    -2.032457      6.267157  KCAL/ANGSTROM
    150         50  H    CARTESIAN Z    -3.271213    -10.384943  KCAL/ANGSTROM
    151         51  O    CARTESIAN X    -2.786319     -1.992299  KCAL/ANGSTROM
    152         51  O    CARTESIAN Y    -1.398295    -18.750094  KCAL/ANGSTROM
    153         51  O    CARTESIAN Z     3.449477      3.652578  KCAL/ANGSTROM
    154         52  H    CARTESIAN X    -3.147592     -1.703456  KCAL/ANGSTROM
    155         52  H    CARTESIAN Y    -1.150073      8.107636  KCAL/ANGSTROM
    156         52  H    CARTESIAN Z     2.560461     -3.305767  KCAL/ANGSTROM
    157         53  H    CARTESIAN X    -2.110772      1.525996  KCAL/ANGSTROM
    158         53  H    CARTESIAN Y    -0.710363      8.518563  KCAL/ANGSTROM
    159         53  H    CARTESIAN Z     3.603376     -1.282881  KCAL/ANGSTROM
    160         54  O    CARTESIAN X    -0.727890     37.650105  KCAL/ANGSTROM
    161         54  O    CARTESIAN Y     4.442995     20.004804  KCAL/ANGSTROM
    162         54  O    CARTESIAN Z     0.822167     19.585838  KCAL/ANGSTROM
    163         55  H    CARTESIAN X    -1.711418    -31.922502  KCAL/ANGSTROM
    164         55  H    CARTESIAN Y     4.233470    -13.958165  KCAL/ANGSTROM
    165         55  H    CARTESIAN Z     0.631723    -13.758072  KCAL/ANGSTROM
    166         56  H    CARTESIAN X    -0.301533     -7.374904  KCAL/ANGSTROM
    167         56  H    CARTESIAN Y     3.995932     -7.657677  KCAL/ANGSTROM
    168         56  H    CARTESIAN Z     0.082810     -6.414095  KCAL/ANGSTROM
    169         57  H    CARTESIAN X    -4.392475      8.333748  KCAL/ANGSTROM
    170         57  H    CARTESIAN Y     1.253657     -1.288329  KCAL/ANGSTROM
    171         57  H    CARTESIAN Z     0.437251      4.352714  KCAL/ANGSTROM
    172         58  H    CARTESIAN X    -0.224760    -12.203469  KCAL/ANGSTROM
    173         58  H    CARTESIAN Y     0.931634     -3.958099  KCAL/ANGSTROM
    174         58  H    CARTESIAN Z     0.152691      0.848403  KCAL/ANGSTROM




   ATOM   CHEMICAL          X               Y               Z
  NUMBER   SYMBOL      (ANGSTROMS)     (ANGSTROMS)     (ANGSTROMS)
 
     1       C         -3.53306300  *   0.59670800  *   0.57114800  *
     2       O         -3.69606500  *  -0.52174100  *   1.08728800  *
     3       N         -2.32301000  *   1.02790400  *   0.14525000  *
     4       H         -2.24361400  *   1.97518900  *  -0.27336800  *
     5       C         -1.07440200  *   0.28689200  *   0.37744800  *
     6       H         -1.03230900  *  -0.03332200  *   1.44189700  *
     7       C         -1.07352200  *  -0.97361100  *  -0.53015400  *
     8       H         -1.96779700  *  -1.60866400  *  -0.29610900  *
     9       H         -1.22962200  *  -0.62783900  *  -1.58267200  *
    10       C          0.16147200  *  -1.80026300  *  -0.46192400  *
    11       C          1.02385300  *  -1.93453500  *  -1.58122300  *
    12       H          0.78005300  *  -1.38118800  *  -2.51231400  *
    13       C          2.13232400  *  -2.71314800  *  -1.50800700  *
    14       H          2.80505000  *  -2.82298000  *  -2.39057100  *
    15       C          2.47314700  *  -3.38971100  *  -0.34242800  *
    16       H          3.35645300  *  -4.03685200  *  -0.28316600  *
    17       C          0.53409400  *  -2.44166100  *   0.73568400  *
    18       H         -0.09210100  *  -2.30923100  *   1.62259100  *
    19       C          1.65449100  *  -3.22900300  *   0.79611300  *
    20       H          1.92637200  *  -3.74767600  *   1.71651800  *
    21       O          4.41795200  *  -6.40481900  *  -1.50898600  *
    22       H          5.23928900  *  -5.95776300  *  -1.23628800  *
    23       H          4.72019500  *  -7.31296300  *  -1.65559300  *
    24       O         -3.61351300  *  -4.12739800  *   1.31478900  *
    25       H         -3.41993700  *  -4.18424900  *   0.31844100  *
    26       H         -4.22281700  *  -3.37266700  *   1.38627400  *
    27       O         -0.29400600  *  -5.67660800  *   0.37722600  *
    28       H         -1.12155500  *  -6.15736800  *   0.64787200  *
    29       H         -0.22847200  *  -4.96371300  *   1.02099000  *
    30       O         -1.97543200  *   0.62886400  *  -3.85843000  *
    31       H         -1.25779900  *   1.28118400  *  -3.69498100  *
    32       H         -2.58102000  *   1.13589400  *  -4.43528200  *
    33       O         -5.62461700  *  -2.16257900  *   2.51687600  *
    34       H         -6.54519500  *  -2.42925200  *   2.75268200  *
    35       H         -5.44073300  *  -1.37215400  *   3.03557600  *
    36       O          0.59625500  *  -2.87734400  *   4.95287000  *
    37       H         -0.08776000  *  -3.06389200  *   4.29129900  *
    38       H          0.07543400  *  -2.38520000  *   5.64239600  *
    39       O         -2.30922400  *   3.77227200  *  -2.43632200  *
    40       H         -2.82343300  *   3.57832300  *  -3.24963700  *
    41       H         -2.96283000  *   3.79158200  *  -1.70486900  *
    42       O         -0.83458900  *   0.42699500  *   3.65176500  *
    43       H         -0.98353400  *   1.35156900  *   3.92497000  *
    44       H          0.13086500  *   0.27875800  *   3.84232900  *
    45       O         -1.73798900  *  -3.81873800  *   3.21078800  *
    46       H         -2.26701400  *  -4.12456800  *   2.45325800  *
    47       H         -2.07096900  *  -2.89552300  *   3.33895900  *
    48       O         -1.96424300  *  -2.99708100  *  -3.19403200  *
    49       H         -1.87773200  *  -3.24375600  *  -4.13908600  *
    50       H         -2.08923800  *  -2.03245700  *  -3.27121300  *
    51       O         -2.78631900  *  -1.39829500  *   3.44947700  *
    52       H         -3.14759200  *  -1.15007300  *   2.56046100  *
    53       H         -2.11077200  *  -0.71036300  *   3.60337600  *
    54       O         -0.72789000  *   4.44299500  *   0.82216700  *
    55       H         -1.71141800  *   4.23347000  *   0.63172300  *
    56       H         -0.30153300  *   3.99593200  *   0.08281000  *
    57       H         -4.39247500  *   1.25365700  *   0.43725100  *
    58       H         -0.22476000  *   0.93163400  *   0.15269100  *

                             CARTESIAN COORDINATES

   1    C       -3.533063000     0.596708000     0.571148000
   2    O       -3.696065000    -0.521741000     1.087288000
   3    N       -2.323010000     1.027904000     0.145250000
   4    H       -2.243614000     1.975189000    -0.273368000
   5    C       -1.074402000     0.286892000     0.377448000
   6    H       -1.032309000    -0.033322000     1.441897000
   7    C       -1.073522000    -0.973611000    -0.530154000
   8    H       -1.967797000    -1.608664000    -0.296109000
   9    H       -1.229622000    -0.627839000    -1.582672000
  10    C        0.161472000    -1.800263000    -0.461924000
  11    C        1.023853000    -1.934535000    -1.581223000
  12    H        0.780053000    -1.381188000    -2.512314000
  13    C        2.132324000    -2.713148000    -1.508007000
  14    H        2.805050000    -2.822980000    -2.390571000
  15    C        2.473147000    -3.389711000    -0.342428000
  16    H        3.356453000    -4.036852000    -0.283166000
  17    C        0.534094000    -2.441661000     0.735684000
  18    H       -0.092101000    -2.309231000     1.622591000
  19    C        1.654491000    -3.229003000     0.796113000
  20    H        1.926372000    -3.747676000     1.716518000
  21    O        4.417952000    -6.404819000    -1.508986000
  22    H        5.239289000    -5.957763000    -1.236288000
  23    H        4.720195000    -7.312963000    -1.655593000
  24    O       -3.613513000    -4.127398000     1.314789000
  25    H       -3.419937000    -4.184249000     0.318441000
  26    H       -4.222817000    -3.372667000     1.386274000
  27    O       -0.294006000    -5.676608000     0.377226000
  28    H       -1.121555000    -6.157368000     0.647872000
  29    H       -0.228472000    -4.963713000     1.020990000
  30    O       -1.975432000     0.628864000    -3.858430000
  31    H       -1.257799000     1.281184000    -3.694981000
  32    H       -2.581020000     1.135894000    -4.435282000
  33    O       -5.624617000    -2.162579000     2.516876000
  34    H       -6.545195000    -2.429252000     2.752682000
  35    H       -5.440733000    -1.372154000     3.035576000
  36    O        0.596255000    -2.877344000     4.952870000
  37    H       -0.087760000    -3.063892000     4.291299000
  38    H        0.075434000    -2.385200000     5.642396000
  39    O       -2.309224000     3.772272000    -2.436322000
  40    H       -2.823433000     3.578323000    -3.249637000
  41    H       -2.962830000     3.791582000    -1.704869000
  42    O       -0.834589000     0.426995000     3.651765000
  43    H       -0.983534000     1.351569000     3.924970000
  44    H        0.130865000     0.278758000     3.842329000
  45    O       -1.737989000    -3.818738000     3.210788000
  46    H       -2.267014000    -4.124568000     2.453258000
  47    H       -2.070969000    -2.895523000     3.338959000
  48    O       -1.964243000    -2.997081000    -3.194032000
  49    H       -1.877732000    -3.243756000    -4.139086000
  50    H       -2.089238000    -2.032457000    -3.271213000
  51    O       -2.786319000    -1.398295000     3.449477000
  52    H       -3.147592000    -1.150073000     2.560461000
  53    H       -2.110772000    -0.710363000     3.603376000
  54    O       -0.727890000     4.442995000     0.822167000
  55    H       -1.711418000     4.233470000     0.631723000
  56    H       -0.301533000     3.995932000     0.082810000
  57    H       -4.392475000     1.253657000     0.437251000
  58    H       -0.224760000     0.931634000     0.152691000


           Empirical Formula: C9 H35 N O13  =    58 atoms



      MOLECULAR POINT GROUP   :   C1  


                EIGENVECTORS  


   Root No.      69        70        71        72        73        74        75        76

                69 A      70 A      71 A      72 A      73 A      74 A      75 A      76 A   

               -11.655   -11.596   -11.588   -11.535   -11.055   -10.327    -9.646    -9.600
  
  S   C    1   -0.0323   -0.0090   -0.0178    0.0150   -0.0280    0.0841    0.0002    0.0008
  Px  C    1   -0.0374   -0.0128   -0.0083    0.0093   -0.0053   -0.1259    0.0481   -0.0015
  Py  C    1   -0.0496   -0.0071   -0.0319    0.0245   -0.0376    0.0911    0.0541   -0.0016
  Pz  C    1   -0.0360   -0.0047    0.0011    0.0019   -0.0167   -0.0221    0.1206   -0.0047
  S   O    2   -0.0089   -0.0011   -0.0152    0.0104   -0.0055    0.0123    0.0070   -0.0003
  Px  O    2   -0.1705    0.0022    0.0023    0.0041   -0.1465    0.8039   -0.1306    0.0026
  Py  O    2   -0.0061    0.0001    0.0279   -0.0173   -0.0054   -0.2429   -0.1747    0.0071
  Pz  O    2   -0.1266   -0.0233   -0.0417    0.0398   -0.1234   -0.1146   -0.4260    0.0201
  S   N    3    0.0432   -0.0048   -0.0142    0.0093    0.0158   -0.0966   -0.0130    0.0022
  Px  N    3    0.0294   -0.0040   -0.0305    0.0214   -0.0136    0.2539    0.0798   -0.0008
  Py  N    3    0.0060    0.0363    0.0868   -0.0690    0.0594    0.1020    0.2898   -0.0173
  Pz  N    3    0.0623   -0.0063   -0.0236    0.0132    0.0965   -0.0195    0.6469   -0.0249
  S   H    4   -0.0019    0.0272    0.0655   -0.0497    0.0154    0.0816   -0.0053   -0.0042
  S   C    5   -0.0128    0.0057    0.0138   -0.0086   -0.0194    0.0058   -0.0261   -0.0058
  Px  C    5   -0.0933   -0.0304   -0.0378    0.0341   -0.0492   -0.1775    0.0013    0.0038
  Py  C    5   -0.0935   -0.0635   -0.1318    0.1028   -0.0581   -0.0024   -0.0187    0.0168
  Pz  C    5    0.1718    0.0755    0.1508   -0.1253    0.1935    0.0096   -0.1831    0.0007
  S   H    6    0.1191    0.0709    0.1454   -0.1196    0.1389    0.0190   -0.1852   -0.0023
  S   C    7    0.0551   -0.0114   -0.0340    0.0174    0.0129   -0.0018    0.0740   -0.0023
  Px  C    7    0.3063   -0.0175   -0.0944    0.0601    0.0989    0.1113   -0.0582   -0.0126
  Py  C    7    0.0010    0.0814    0.1816   -0.1460    0.1407    0.0515    0.1234   -0.0223
  Pz  C    7   -0.0991   -0.0755   -0.1559    0.1459   -0.2707   -0.0317    0.1619   -0.0001
  S   H    8   -0.1719   -0.0422   -0.0636    0.0585   -0.1649   -0.0793    0.0603    0.0150
  S   H    9    0.0550    0.0705    0.1528   -0.1288    0.2371    0.0232   -0.0569   -0.0035
  S   C   10    0.0154   -0.0029   -0.0113    0.0087   -0.0178    0.0187   -0.0205    0.0005
  Px  C   10   -0.1582    0.0609    0.1657   -0.1287   -0.0404   -0.0359    0.1488    0.0157
  Py  C   10    0.1759   -0.0251   -0.0882    0.0551   -0.0446    0.0651    0.1148    0.0267
  Pz  C   10   -0.1137   -0.0266   -0.0396    0.0615    0.3269    0.0334    0.0242    0.0164
  S   C   11   -0.0301   -0.0116   -0.0204    0.0208   -0.0177   -0.0113    0.0176    0.0004
  Px  C   11    0.1861   -0.0517   -0.1450    0.1039    0.1295    0.0397   -0.0069   -0.2481
  Py  C   11   -0.2116    0.0034    0.0412   -0.0101    0.0285   -0.0089    0.0634   -0.3729
  Pz  C   11    0.1267    0.0336    0.0547   -0.0779   -0.2729   -0.0232    0.0514   -0.1643
  S   H   12   -0.2158   -0.0155    0.0004    0.0351    0.1776   -0.0009   -0.0008    0.0101
  S   C   13    0.0048    0.0075    0.0151   -0.0138   -0.0109    0.0043   -0.0039    0.0001
  Px  C   13   -0.2170    0.0406    0.1250   -0.0884   -0.1110   -0.0432   -0.0267   -0.2746
  Py  C   13    0.1433   -0.0350   -0.1008    0.0599   -0.0610   -0.0100   -0.0935   -0.4023
  Pz  C   13   -0.1644   -0.0571   -0.1004    0.1148    0.2379    0.0056   -0.0445   -0.1503
  S   H   14   -0.0085    0.0632    0.1415   -0.1294   -0.2151   -0.0230    0.0246   -0.0035
  S   C   15    0.0100   -0.0063   -0.0158    0.0127    0.0039    0.0025   -0.0009    0.0000
  Px  C   15    0.1437   -0.0693   -0.1749    0.1280    0.0420   -0.0124   -0.1116   -0.0262
  Py  C   15   -0.2257    0.0005    0.0364   -0.0085   -0.0012   -0.0405   -0.1362   -0.0356
  Pz  C   15    0.1389    0.0435    0.0737   -0.0944   -0.2658   -0.0245   -0.0390   -0.0265
  S   H   16    0.2157   -0.0481   -0.1401    0.0931    0.0212    0.0134   -0.0106   -0.0010
  S   C   17    0.0099    0.0086    0.0183   -0.0176    0.0218    0.0013   -0.0000    0.0022
  Px  C   17    0.1644   -0.0635   -0.1673    0.1234    0.0229    0.0201    0.0256    0.2854
  Py  C   17   -0.1549    0.0285    0.0893   -0.0588    0.0737    0.0016    0.0639    0.4258
  Pz  C   17    0.1250    0.0211    0.0244   -0.0496   -0.3012   -0.0105    0.0456    0.1275
  S   H   18   -0.0033    0.0533    0.1179   -0.1101   -0.1961   -0.0186    0.0231   -0.0083
  S   C   19   -0.0151    0.0008    0.0034   -0.0002   -0.0038    0.0024   -0.0023    0.0029
  Px  C   19   -0.1817    0.0540    0.1491   -0.1131   -0.0754   -0.0333   -0.0307    0.2596
  Py  C   19    0.1307   -0.0432   -0.1173    0.0759   -0.0875   -0.0125   -0.0789    0.3713
  Pz  C   19   -0.1437   -0.0487   -0.0834    0.0965    0.2345    0.0015   -0.0373    0.1376
  S   H   20   -0.2000   -0.0054    0.0210    0.0144    0.1905    0.0010   -0.0032    0.0056
  S   O   21   -0.0045    0.0009    0.0027   -0.0017   -0.0004   -0.0003   -0.0001   -0.0001
  Px  O   21    0.0060   -0.0011   -0.0032    0.0019    0.0005    0.0001    0.0002    0.0001
  Py  O   21    0.0004   -0.0000    0.0001   -0.0002   -0.0001   -0.0002   -0.0000   -0.0001
  Pz  O   21   -0.0327    0.0066    0.0188   -0.0115   -0.0024   -0.0007    0.0001    0.0001
  S   H   22    0.0003   -0.0000   -0.0001    0.0001    0.0001    0.0001    0.0001    0.0001
  S   H   23    0.0054   -0.0011   -0.0033    0.0022    0.0005    0.0003    0.0001    0.0002
  S   O   24   -0.0012    0.0009   -0.0011    0.0005   -0.0004   -0.0000   -0.0001    0.0002
  Px  O   24    0.0146    0.0178   -0.0030   -0.0019    0.0068    0.0005    0.0010    0.0006
  Py  O   24    0.0160   -0.0078    0.0088   -0.0038    0.0081    0.0010   -0.0029    0.0003
  Pz  O   24   -0.0037    0.0016   -0.0028    0.0017   -0.0036   -0.0011    0.0017   -0.0004
  S   H   25    0.0011    0.0016   -0.0000   -0.0004    0.0005    0.0001    0.0001   -0.0001
  S   H   26    0.0007   -0.0016    0.0010   -0.0003    0.0003   -0.0000    0.0004   -0.0002
  S   O   27   -0.0003   -0.0002   -0.0004    0.0003   -0.0007   -0.0003   -0.0008    0.0061
  Px  O   27    0.0046    0.0003   -0.0007   -0.0002   -0.0037   -0.0005   -0.0015   -0.0034
  Py  O   27   -0.0046   -0.0011   -0.0014    0.0011   -0.0010   -0.0006   -0.0009    0.0371
  Pz  O   27    0.0080   -0.0002   -0.0011   -0.0005   -0.0067   -0.0008   -0.0012    0.0278
  S   H   28    0.0002    0.0003    0.0008   -0.0004    0.0016    0.0005    0.0013   -0.0096
  S   H   29    0.0004   -0.0001   -0.0002   -0.0000   -0.0004    0.0000    0.0001   -0.0045
  S   O   30   -0.0012   -0.0027   -0.0060    0.0047   -0.0080   -0.0006    0.0016    0.0000
  Px  O   30   -0.0242   -0.1000   -0.2737   -0.3883    0.0161    0.0008   -0.0006   -0.0000
  Py  O   30    0.0197    0.0700    0.1906    0.2649   -0.0105   -0.0012    0.0017    0.0001
  Pz  O   30    0.0402    0.1601    0.4406    0.6519   -0.0449   -0.0030    0.0048    0.0002
  S   H   31    0.0006    0.0005    0.0010   -0.0014    0.0016    0.0001   -0.0006    0.0000
  S   H   32    0.0009    0.0025    0.0056   -0.0057    0.0088    0.0007   -0.0019   -0.0000
  S   O   33   -0.0005    0.0001    0.0002   -0.0001   -0.0003    0.0021    0.0002   -0.0000
  Px  O   33   -0.0209    0.3275   -0.1328    0.0108    0.0015   -0.0041    0.0007    0.0000
  Py  O   33    0.0301   -0.5257    0.2134   -0.0175   -0.0036    0.0215    0.0031   -0.0003
  Pz  O   33   -0.0427    0.6849   -0.2790    0.0233    0.0040   -0.0085    0.0034   -0.0001
  S   H   34    0.0010    0.0009   -0.0006    0.0002    0.0005   -0.0046   -0.0006    0.0000
  S   H   35   -0.0002    0.0001   -0.0002    0.0001    0.0001   -0.0004    0.0000   -0.0000
  S   O   36    0.0006    0.0002    0.0001   -0.0002   -0.0005    0.0000    0.0000   -0.0001
  Px  O   36    0.0007    0.0017    0.0012   -0.0015   -0.0031    0.0002   -0.0006   -0.0002
  Py  O   36   -0.0003   -0.0017   -0.0040    0.0031    0.0018    0.0001    0.0002   -0.0003
  Pz  O   36   -0.0020    0.0015    0.0024   -0.0021   -0.0030   -0.0002    0.0000    0.0002
  S   H   37    0.0001   -0.0003   -0.0005    0.0004    0.0005    0.0000   -0.0001    0.0000
  S   H   38   -0.0008    0.0000    0.0002   -0.0001    0.0002   -0.0000   -0.0000    0.0001
  S   O   39   -0.0000    0.0004    0.0011    0.0007   -0.0001   -0.0004    0.0001    0.0000
  Px  O   39    0.0001    0.0014    0.0037    0.0032    0.0001    0.0044   -0.0015   -0.0001
  Py  O   39   -0.0039    0.0186    0.0461    0.0004    0.0023    0.0090   -0.0018   -0.0002
  Pz  O   39    0.0014   -0.0028   -0.0066    0.0061   -0.0006   -0.0054    0.0010    0.0002
  S   H   40   -0.0001   -0.0000   -0.0001   -0.0010    0.0001    0.0010   -0.0002   -0.0000
  S   H   41    0.0002   -0.0004   -0.0010    0.0008   -0.0001   -0.0005   -0.0002    0.0000
  S   O   42   -0.0095   -0.0065   -0.0104    0.0090   -0.0092   -0.0016    0.0116   -0.0000
  Px  O   42   -0.0624   -0.0282   -0.0638    0.0437   -0.0166    0.0014    0.0066   -0.0008
  Py  O   42   -0.0839   -0.0369   -0.0824    0.0561   -0.0248    0.0004    0.0069    0.0001
  Pz  O   42    0.2776    0.1298    0.2755   -0.1932    0.0965    0.0029   -0.0468   -0.0003
  S   H   43    0.0061    0.0044    0.0072   -0.0063    0.0057    0.0009   -0.0083    0.0001
  S   H   44    0.0045    0.0029    0.0042   -0.0038    0.0050    0.0010   -0.0063    0.0001
  S   O   45   -0.0005    0.0019    0.0000   -0.0004   -0.0003    0.0001    0.0003    0.0004
  Px  O   45    0.0000   -0.0106   -0.0454    0.0355    0.0275    0.0061   -0.0071    0.0027
  Py  O   45    0.0082   -0.0202   -0.0240    0.0221    0.0294   -0.0056    0.0103    0.0020
  Pz  O   45   -0.0022    0.0256    0.0427   -0.0372   -0.0369   -0.0025    0.0016   -0.0059
  S   H   46   -0.0001   -0.0007   -0.0001    0.0002   -0.0001    0.0003   -0.0005   -0.0002
  S   H   47    0.0006   -0.0014   -0.0009    0.0010    0.0014    0.0003   -0.0012   -0.0004
  S   O   48    0.0010    0.0002    0.0002   -0.0008    0.0006    0.0006    0.0011   -0.0011
  Px  O   48    0.0252   -0.0055   -0.0160    0.0090   -0.0165    0.0006    0.0042   -0.0078
  Py  O   48    0.0076   -0.0050   -0.0124    0.0148   -0.0215    0.0006    0.0064   -0.0034
  Pz  O   48    0.0010    0.0005    0.0007   -0.0036    0.0050    0.0008   -0.0001    0.0000
  S   H   49   -0.0015    0.0004    0.0012   -0.0009    0.0012   -0.0009   -0.0017    0.0013
  S   H   50    0.0005   -0.0008   -0.0018    0.0017   -0.0021   -0.0001   -0.0004    0.0005
  S   O   51   -0.0019    0.0009    0.0053   -0.0032   -0.0015    0.0001    0.0037   -0.0001
  Px  O   51   -0.0416   -0.0025   -0.0541    0.0355   -0.0147    0.0050   -0.0095    0.0012
  Py  O   51    0.0058   -0.0196   -0.0102    0.0084    0.0101   -0.0277    0.0455   -0.0021
  Pz  O   51   -0.0384   -0.0018    0.0120   -0.0055   -0.0396    0.0659   -0.0794    0.0029
  S   H   52    0.0045   -0.0007   -0.0004    0.0003    0.0006    0.0060   -0.0121    0.0005
  S   H   53   -0.0032    0.0002   -0.0062    0.0038   -0.0014    0.0019   -0.0044    0.0002
  S   O   54   -0.0008    0.0003    0.0008   -0.0005   -0.0001    0.0005   -0.0001   -0.0000
  Px  O   54    0.0005    0.0018    0.0040   -0.0030    0.0014    0.0052    0.0030   -0.0003
  Py  O   54   -0.0112    0.0005    0.0034   -0.0021   -0.0014    0.0041    0.0023   -0.0001
  Pz  O   54    0.0021    0.0005    0.0008   -0.0005   -0.0002    0.0026    0.0018   -0.0001
  S   H   55    0.0004   -0.0003   -0.0009    0.0006   -0.0000   -0.0003    0.0006   -0.0000
  S   H   56    0.0008   -0.0001   -0.0003    0.0002    0.0002   -0.0002    0.0002   -0.0000
  S   H   57   -0.0256   -0.0005   -0.0218    0.0160   -0.0411    0.2620   -0.0264    0.0014
  S   H   58   -0.1372   -0.0554   -0.0968    0.0813   -0.1030   -0.1111    0.0057    0.0075


   Root No.      77        78        79        80        81        82        83        84

                77 A      78 A      79 A      80 A      81 A      82 A      83 A      84 A   

                -8.925     0.530     0.757     1.452     2.519     2.968     3.654     4.260
  
  S   C    1    0.0007   -0.0036   -0.0003   -0.0013   -0.2873    0.0121    0.0950   -0.1220
  Px  C    1   -0.0147   -0.0178    0.0023    0.1261   -0.3382    0.0148   -0.0054   -0.0447
  Py  C    1   -0.0227   -0.0286    0.0066    0.3200   -0.1429    0.0143   -0.0999    0.0976
  Pz  C    1   -0.0475   -0.0492    0.0143    0.7205    0.0966    0.0254    0.0693    0.0117
  S   O    2   -0.0042   -0.0032    0.0004    0.0084   -0.0230   -0.0008   -0.0661    0.0460
  Px  O    2    0.0071    0.0059   -0.0007   -0.0601    0.1362   -0.0077   -0.0426    0.0442
  Py  O    2    0.0525    0.0123   -0.0037   -0.1729    0.0155   -0.0081   -0.0996    0.0914
  Pz  O    2    0.1298    0.0322   -0.0083   -0.3663   -0.0169   -0.0090   -0.0073   -0.0447
  S   N    3    0.0120    0.0126    0.0012    0.0248    0.4458   -0.0105    0.0011    0.0381
  Px  N    3   -0.0162    0.0107    0.0006   -0.0365    0.0524   -0.0022    0.0352   -0.1159
  Py  N    3   -0.1073   -0.0039   -0.0022   -0.1724   -0.1262   -0.0099   -0.0134    0.0308
  Pz  N    3   -0.1804    0.0123   -0.0033   -0.3574    0.1068   -0.0333    0.0026   -0.0771
  S   H    4   -0.0186   -0.0138   -0.0003   -0.0144   -0.3581    0.0017    0.0291   -0.1258
  S   C    5   -0.0459   -0.0573    0.0058    0.0029   -0.1898   -0.0483   -0.0398   -0.1027
  Px  C    5    0.0165    0.0095    0.0023    0.0302    0.4494   -0.0100    0.0320   -0.0339
  Py  C    5    0.1292    0.0767   -0.0138   -0.0508   -0.2715    0.1004   -0.0272    0.3397
  Pz  C    5    0.1071    0.0667   -0.0152   -0.0168    0.0776    0.0739   -0.0685    0.2784
  S   H    6    0.0392   -0.0073    0.0011    0.0606   -0.0242   -0.0065    0.0519   -0.0772
  S   C    7   -0.0112    0.0188   -0.0036   -0.0510    0.0212    0.0213   -0.0134    0.1067
  Px  C    7   -0.0898   -0.0216    0.0004   -0.0078    0.0487   -0.0084    0.0357   -0.1000
  Py  C    7   -0.1636    0.0117   -0.0062   -0.0752   -0.0474    0.0676   -0.0195    0.3643
  Pz  C    7   -0.0524    0.0218   -0.0019   -0.0571   -0.0117    0.0464   -0.0235    0.2340
  S   H    8    0.1292    0.0805   -0.0112    0.0042    0.0324    0.0593    0.0245   -0.0110
  S   H    9    0.0084    0.0074   -0.0032   -0.0008    0.0342    0.0090   -0.0106    0.0452
  S   C   10   -0.0071   -0.0033   -0.0000    0.0056   -0.0647    0.0091   -0.0063    0.0410
  Px  C   10    0.2589    0.3110   -0.0420    0.0170    0.0819    0.1862    0.0242   -0.2036
  Py  C   10    0.4213    0.4702   -0.0644    0.0388   -0.0605    0.3016   -0.0107   -0.0109
  Pz  C   10    0.1449    0.1666   -0.0337    0.0090    0.0065    0.1087   -0.0147    0.0473
  S   C   11   -0.0049    0.0003   -0.0071   -0.0047    0.0052   -0.0059   -0.0097    0.0372
  Px  C   11    0.1880   -0.1740   -0.2406    0.0049   -0.0037   -0.2309    0.0159   -0.0636
  Py  C   11    0.2659   -0.2617   -0.3517   -0.0009   -0.0132   -0.3190   -0.0046    0.0671
  Pz  C   11    0.1099   -0.1057   -0.1496   -0.0056    0.0041   -0.1305   -0.0158    0.0881
  S   H   12   -0.0073   -0.0021    0.0037   -0.0016    0.0105    0.0014    0.0004   -0.0026
  S   C   13    0.0039   -0.0018    0.0053    0.0005   -0.0085    0.0122   -0.0061    0.0199
  Px  C   13   -0.0968   -0.1252    0.2690   -0.0226    0.0241    0.2274    0.0061   -0.0572
  Py  C   13   -0.1443   -0.1746    0.4031   -0.0299    0.0076    0.3506   -0.0000    0.0043
  Pz  C   13   -0.0552   -0.0739    0.1581   -0.0130    0.0103    0.1384   -0.0049    0.0047
  S   H   14    0.0037   -0.0016   -0.0060   -0.0015    0.0033   -0.0040   -0.0068    0.0395
  S   C   15   -0.0002    0.0083    0.0001    0.0013   -0.0051   -0.0094   -0.0060    0.0104
  Px  C   15   -0.2903    0.3058   -0.0177    0.0276   -0.0111   -0.2296    0.0056   -0.0207
  Py  C   15   -0.4116    0.4402   -0.0243    0.0402   -0.0235   -0.3274   -0.0017    0.0211
  Pz  C   15   -0.1504    0.1627   -0.0040    0.0138   -0.0073   -0.1196   -0.0154    0.0386
  S   H   16    0.0046   -0.0089    0.0015   -0.0008   -0.0029    0.0139   -0.0006    0.0284
  S   C   17   -0.0058   -0.0029    0.0082   -0.0004   -0.0006   -0.0089   -0.0233   -0.0352
  Px  C   17    0.1516   -0.1191    0.2880   -0.0073    0.0002   -0.2047    0.0296   -0.0038
  Py  C   17    0.2072   -0.1826    0.4258   -0.0108   -0.0175   -0.2924   -0.0023    0.0599
  Pz  C   17    0.0735   -0.0575    0.1336   -0.0053   -0.0060   -0.0931   -0.0399    0.0405
  S   H   18   -0.0047   -0.0028   -0.0016   -0.0005    0.0096   -0.0021    0.0443   -0.0428
  S   C   19    0.0038   -0.0027   -0.0064    0.0005   -0.0078    0.0104   -0.0050    0.0091
  Px  C   19   -0.1539   -0.1775   -0.2688   -0.0149    0.0258    0.2082    0.0123   -0.0732
  Py  C   19   -0.2199   -0.2469   -0.3925   -0.0191    0.0104    0.3140    0.0049    0.0202
  Pz  C   19   -0.0825   -0.0851   -0.1357   -0.0068    0.0049    0.1081   -0.0147    0.0171
  S   H   20    0.0002   -0.0013    0.0064    0.0001    0.0015   -0.0057    0.0123   -0.0062
  S   O   21   -0.0007    0.0008    0.0001    0.0001    0.0000   -0.0014   -0.0001   -0.0113
  Px  O   21    0.0003    0.0007    0.0001    0.0001    0.0000   -0.0018   -0.0001   -0.0173
  Py  O   21   -0.0004   -0.0001   -0.0000   -0.0000    0.0000    0.0006    0.0000    0.0079
  Pz  O   21   -0.0007    0.0004   -0.0000    0.0000    0.0000   -0.0004   -0.0000   -0.0019
  S   H   22    0.0004   -0.0011   -0.0001   -0.0001   -0.0000    0.0023    0.0001    0.0213
  S   H   23    0.0009   -0.0014   -0.0001   -0.0002   -0.0000    0.0026    0.0001    0.0226
  S   O   24   -0.0001   -0.0012    0.0006    0.0006    0.0002   -0.0019   -0.1215   -0.0638
  Px  O   24   -0.0009   -0.0002    0.0002    0.0005   -0.0008    0.0005    0.0369    0.0125
  Py  O   24   -0.0018   -0.0013    0.0006    0.0007    0.0007   -0.0020   -0.1200   -0.0509
  Pz  O   24    0.0017    0.0014   -0.0006    0.0005    0.0005    0.0020    0.0905    0.0609
  S   H   25    0.0001    0.0018   -0.0010   -0.0006    0.0004    0.0034    0.1997    0.1244
  S   H   26   -0.0000    0.0015   -0.0006   -0.0003   -0.0012    0.0031    0.2169    0.1048
  S   O   27   -0.0023   -0.0091   -0.0026   -0.0006    0.0003    0.0041   -0.0421   -0.0667
  Px  O   27   -0.0042    0.0035   -0.0007    0.0002   -0.0001   -0.0019    0.0416    0.0660
  Py  O   27   -0.0016   -0.0142   -0.0013   -0.0009    0.0003    0.0028   -0.0202   -0.0250
  Pz  O   27   -0.0028   -0.0163   -0.0032   -0.0010    0.0004    0.0057   -0.0557   -0.0834
  S   H   28    0.0036    0.0092    0.0048    0.0006   -0.0004   -0.0069    0.0766    0.1307
  S   H   29    0.0006    0.0200    0.0026    0.0014   -0.0006   -0.0074    0.0833    0.1302
  S   O   30   -0.0003   -0.0001    0.0000   -0.0002    0.0015   -0.0005   -0.0001    0.0104
  Px  O   30    0.0001    0.0000    0.0000   -0.0003    0.0008   -0.0001   -0.0001    0.0010
  Py  O   30   -0.0002   -0.0000    0.0001   -0.0004    0.0040   -0.0006   -0.0004    0.0170
  Pz  O   30   -0.0007   -0.0001    0.0001   -0.0000   -0.0004    0.0001    0.0001   -0.0063
  S   H   31    0.0002    0.0001   -0.0001    0.0005   -0.0036    0.0008    0.0004   -0.0198
  S   H   32    0.0003    0.0002   -0.0000    0.0002   -0.0021    0.0009    0.0001   -0.0198
  S   O   33   -0.0003   -0.0005    0.0002    0.0038    0.0016   -0.0005   -0.0706    0.0002
  Px  O   33   -0.0002    0.0000   -0.0000   -0.0005   -0.0007    0.0002    0.0395   -0.0001
  Py  O   33   -0.0016   -0.0005    0.0001    0.0052    0.0019   -0.0002   -0.0505    0.0104
  Pz  O   33   -0.0008   -0.0004    0.0001    0.0046    0.0016   -0.0003   -0.0635    0.0062
  S   H   34    0.0005    0.0006   -0.0002   -0.0047   -0.0025    0.0008    0.1128    0.0009
  S   H   35    0.0002    0.0007   -0.0002   -0.0068   -0.0034    0.0008    0.1259   -0.0065
  S   O   36   -0.0000   -0.0001    0.0001    0.0010   -0.0001   -0.0002   -0.1104   -0.1054
  Px  O   36    0.0002    0.0003   -0.0002   -0.0020    0.0001    0.0005    0.1905    0.1729
  Py  O   36   -0.0001    0.0001   -0.0000    0.0001    0.0001    0.0000   -0.0291   -0.0343
  Pz  O   36    0.0001    0.0001   -0.0001   -0.0007    0.0001    0.0002    0.0328    0.0103
  S   H   37    0.0000    0.0003   -0.0003   -0.0021    0.0002    0.0006    0.2419    0.2191
  S   H   38    0.0000    0.0000   -0.0001   -0.0012    0.0000    0.0003    0.1842    0.2008
  S   O   39    0.0001    0.0004    0.0000    0.0004    0.0180   -0.0002   -0.0023    0.0422
  Px  O   39   -0.0003   -0.0006   -0.0000   -0.0006   -0.0297    0.0004    0.0036   -0.0669
  Py  O   39   -0.0006   -0.0003   -0.0000   -0.0002   -0.0076    0.0001    0.0007   -0.0102
  Pz  O   39    0.0006    0.0004    0.0000    0.0004    0.0122   -0.0001   -0.0007    0.0041
  S   H   40   -0.0002   -0.0004   -0.0000   -0.0004   -0.0240    0.0004    0.0036   -0.0749
  S   H   41    0.0000   -0.0007   -0.0000   -0.0007   -0.0368    0.0005    0.0046   -0.0865
  S   O   42   -0.0030   -0.0003   -0.0002    0.0008    0.0025   -0.0000   -0.1276    0.0885
  Px  O   42   -0.0020    0.0003   -0.0007   -0.0025    0.0006    0.0003   -0.0756    0.0622
  Py  O   42   -0.0017   -0.0001   -0.0001   -0.0023    0.0024   -0.0003   -0.0805    0.0748
  Pz  O   42    0.0096   -0.0001   -0.0001    0.0041    0.0001    0.0001   -0.0670    0.0477
  S   H   43    0.0022    0.0004    0.0002   -0.0004   -0.0041    0.0002    0.2075   -0.1613
  S   H   44    0.0018    0.0002    0.0006   -0.0009   -0.0033   -0.0002    0.2076   -0.1507
  S   O   45   -0.0001   -0.0015    0.0011    0.0045    0.0000   -0.0014   -0.1548   -0.0527
  Px  O   45    0.0023    0.0015   -0.0010   -0.0056   -0.0002    0.0016    0.1645    0.0480
  Py  O   45   -0.0022   -0.0013    0.0011    0.0095    0.0003   -0.0009   -0.1476   -0.0019
  Pz  O   45   -0.0013    0.0022   -0.0020   -0.0011    0.0002    0.0020    0.1154    0.0622
  S   H   46    0.0001    0.0022   -0.0019   -0.0038    0.0001    0.0031    0.2647    0.1355
  S   H   47    0.0004    0.0022   -0.0015   -0.0112   -0.0004    0.0020    0.2915    0.0481
  S   O   48    0.0003   -0.0005   -0.0019   -0.0006   -0.0023   -0.0018   -0.0015    0.0230
  Px  O   48    0.0062   -0.0002   -0.0016   -0.0000    0.0001   -0.0005    0.0001   -0.0010
  Py  O   48   -0.0006   -0.0010   -0.0026   -0.0009   -0.0037   -0.0023   -0.0012    0.0237
  Pz  O   48    0.0001    0.0007    0.0016    0.0004    0.0022    0.0021    0.0018   -0.0312
  S   H   49   -0.0001    0.0005    0.0028    0.0008    0.0033    0.0027    0.0029   -0.0450
  S   H   50   -0.0003    0.0009    0.0030    0.0010    0.0049    0.0034    0.0025   -0.0458
  S   O   51   -0.0021   -0.0025    0.0007    0.0242    0.0017   -0.0002   -0.1698    0.0619
  Px  O   51    0.0030    0.0009   -0.0002   -0.0111    0.0016   -0.0004   -0.1082    0.0344
  Py  O   51   -0.0115   -0.0022    0.0003    0.0230    0.0025    0.0004   -0.1459    0.0998
  Pz  O   51    0.0212    0.0054   -0.0015   -0.0511   -0.0009   -0.0001    0.1426   -0.0545
  S   H   52    0.0050    0.0061   -0.0017   -0.0660   -0.0022   -0.0003    0.2685   -0.1142
  S   H   53    0.0018    0.0019   -0.0004   -0.0184   -0.0036    0.0003    0.3012   -0.1373
  S   O   54    0.0001    0.0002    0.0000    0.0014    0.0168   -0.0003   -0.0031    0.0383
  Px  O   54   -0.0016   -0.0005   -0.0000   -0.0018   -0.0189    0.0001    0.0025   -0.0268
  Py  O   54   -0.0004   -0.0002   -0.0001   -0.0016   -0.0187    0.0003    0.0031   -0.0359
  Pz  O   54   -0.0005   -0.0003   -0.0001   -0.0019   -0.0234    0.0004    0.0041   -0.0512
  S   H   55   -0.0003   -0.0005   -0.0001   -0.0031   -0.0364    0.0004    0.0065   -0.0796
  S   H   56   -0.0000   -0.0001   -0.0001   -0.0019   -0.0262    0.0006    0.0057   -0.0748
  S   H   57    0.0047    0.0050    0.0005    0.0060    0.2117   -0.0076   -0.0305    0.0218
  S   H   58    0.0389    0.0022   -0.0003    0.0127    0.0362   -0.0060    0.0014   -0.0306


              NET ATOMIC CHARGES AND DIPOLE CONTRIBUTIONS

  ATOM NO.   TYPE          CHARGE      No. of ELECS.   s-Pop       p-Pop       
    1          C           0.483760        3.5162     1.11611     2.40013
    2          O          -0.726606        6.7266     1.87788     4.84873
    3          N          -0.517835        5.5178     1.55636     3.96147
    4          H           0.369511        0.6305     0.63049
    5          C          -0.060483        4.0605     1.07019     2.99030
    6          H           0.147647        0.8524     0.85235
    7          C          -0.338272        4.3383     1.06450     3.27377
    8          H           0.179190        0.8208     0.82081
    9          H           0.174365        0.8256     0.82564
   10          C           0.006140        3.9939     1.07962     2.91424
   11          C          -0.185034        4.1850     1.08743     3.09760
   12          H           0.181120        0.8189     0.81888
   13          C          -0.144969        4.1450     1.08115     3.06382
   14          H           0.173014        0.8270     0.82699
   15          C          -0.176130        4.1761     1.08938     3.08675
   16          H           0.155411        0.8446     0.84459
   17          C          -0.219600        4.2196     1.08267     3.13693
   18          H           0.160477        0.8395     0.83952
   19          C          -0.146442        4.1464     1.08294     3.06350
   20          H           0.147248        0.8528     0.85275
   21          O          -0.721639        6.7216     1.82661     4.89503
   22          H           0.372346        0.6277     0.62765
   23          H           0.349220        0.6508     0.65078
   24          O          -0.816363        6.8164     1.82631     4.99005
   25          H           0.442126        0.5579     0.55787
   26          H           0.391054        0.6089     0.60895
   27          O          -0.805344        6.8053     1.82515     4.98020
   28          H           0.420709        0.5793     0.57929
   29          H           0.380587        0.6194     0.61941
   30          O          -0.757671        6.7577     1.83011     4.92756
   31          H           0.388167        0.6118     0.61183
   32          H           0.369678        0.6303     0.63032
   33          O          -0.763733        6.7637     1.81722     4.94651
   34          H           0.399723        0.6003     0.60028
   35          H           0.366332        0.6337     0.63367
   36          O          -0.799414        6.7994     1.83023     4.96919
   37          H           0.381237        0.6188     0.61876
   38          H           0.414398        0.5856     0.58560
   39          O          -0.789718        6.7897     1.82350     4.96622
   40          H           0.399597        0.6004     0.60040
   41          H           0.390373        0.6096     0.60963
   42          O          -0.785752        6.7858     1.81772     4.96803
   43          H           0.383903        0.6161     0.61610
   44          H           0.423249        0.5768     0.57675
   45          O          -0.844510        6.8445     1.82669     5.01782
   46          H           0.398494        0.6015     0.60151
   47          H           0.394551        0.6054     0.60545
   48          O          -0.763320        6.7633     1.83114     4.93218
   49          H           0.382366        0.6176     0.61763
   50          H           0.379855        0.6201     0.62014
   51          O          -0.824129        6.8241     1.82363     5.00050
   52          H           0.414362        0.5856     0.58564
   53          H           0.396703        0.6033     0.60330
   54          O          -0.804355        6.8044     1.83842     4.96593
   55          H           0.448535        0.5515     0.55146
   56          H           0.355736        0.6443     0.64426
   57          H           0.185689        0.8143     0.81431
   58          H           0.184443        0.8156     0.81556
 DIPOLE           X         Y         Z       TOTAL
 POINT-CHG.    -5.109    15.511    -8.446    18.386
 HYBRID        -0.718     0.593    -0.400     1.014
 SUM           -5.827    16.104    -8.846    19.276


          ATOMIC ORBITAL ELECTRON POPULATIONS

     Atom    s        px        py        pz   
    1  C   1.11611   0.85533   0.83061   0.71418
    2  O   1.87788   1.88537   1.38068   1.58267
    3  N   1.55636   1.12553   1.28473   1.55121
    4  H   0.63049
    5  C   1.07019   0.90223   0.99084   1.09723
    6  H   0.85235
    7  C   1.06450   1.06873   1.05962   1.14543
    8  H   0.82081
    9  H   0.82564
   10  C   1.07962   0.96824   0.97005   0.97595
   11  C   1.08743   0.99845   1.03506   1.06409
   12  H   0.81888
   13  C   1.08115   1.02686   0.98547   1.05149
   14  H   0.82699
   15  C   1.08938   1.06083   1.03075   0.99517
   16  H   0.84459
   17  C   1.08267   1.04200   1.02982   1.06510
   18  H   0.83952
   19  C   1.08294   0.99797   1.00941   1.05612
   20  H   0.85275
   21  O   1.82661   1.51118   1.43475   1.94910
   22  H   0.62765
   23  H   0.65078
   24  O   1.82631   1.78088   1.68179   1.52738
   25  H   0.55787
   26  H   0.60895
   27  O   1.82515   1.65071   1.63240   1.69709
   28  H   0.57929
   29  H   0.61941
   30  O   1.83011   1.55763   1.56675   1.80317
   31  H   0.61183
   32  H   0.63032
   33  O   1.81722   1.54164   1.61894   1.78594
   34  H   0.60028
   35  H   0.63367
   36  O   1.83023   1.54558   1.86531   1.55830
   37  H   0.61876
   38  H   0.58560
   39  O   1.82350   1.55399   1.97958   1.43265
   40  H   0.60040
   41  H   0.60963
   42  O   1.81772   1.52314   1.51661   1.92829
   43  H   0.61610
   44  H   0.57675
   45  O   1.82669   1.77139   1.54898   1.69744
   46  H   0.60151
   47  H   0.60545
   48  O   1.83114   1.98815   1.46247   1.48156
   49  H   0.61763
   50  H   0.62014
   51  O   1.82363   1.70874   1.68244   1.60932
   52  H   0.58564
   53  H   0.60330
   54  O   1.83842   1.48663   1.84815   1.63115
   55  H   0.55146
   56  H   0.64426
   57  H   0.81431
   58  H   0.81556


          SIGMA-PI BOND-ORDER MATRIX

                 S-SIGMA    P-SIGMA      P-PI     S-SIGMA    P-SIGMA      P-PI 
                  C  1       C  1       C  1       O  2       O  2       O  2
------------------------------------------------------------------------------
 S-SIGMA  C  1   0.954438
 P-SIGMA  C  1   0.000000   1.781769
   P-PI   C  1   0.000000   0.000000   1.031487
 S-SIGMA  O  2   0.020507   0.121864   0.000079   0.157023
 P-SIGMA  O  2   0.261438   0.538467   0.002361   0.000000   0.899990
   P-PI   O  2   0.007247   0.001688   0.541274   0.000000   0.000000   0.702857
 S-SIGMA  N  3   0.043755   0.177616   0.002619   0.000516   0.008963   0.012611
 P-SIGMA  N  3   0.213607   0.399462   0.001877   0.000086   0.014521   0.006992
   P-PI   N  3   0.001253   0.000596   0.454532   0.001132   0.000484   0.116315
 S-SIGMA  H  4   0.002362   0.004426   0.006626   0.000125   0.012850   0.002610
 S-SIGMA  C  5   0.000109   0.000671   0.000102   0.000111   0.000006   0.000665
 P-SIGMA  C  5   0.000473   0.011749   0.003157   0.000216   0.001216   0.001843
   P-PI   C  5   0.000163   0.001000   0.001269   0.000128   0.001537   0.002417
 S-SIGMA  H  6   0.000040   0.000626   0.002890   0.000000   0.000598   0.001257
 S-SIGMA  C  7   0.000001   0.000238   0.001757   0.000013   0.000031   0.000600
 P-SIGMA  C  7   0.000037   0.000113   0.001897   0.000023   0.000024   0.000285
   P-PI   C  7   0.000032   0.000666   0.002410   0.000057   0.000994   0.001711
 S-SIGMA  H  8   0.000134   0.000212   0.000030   0.000028   0.000553   0.000038
 S-SIGMA  H  9   0.000007   0.000064   0.000012   0.000001   0.000005   0.000007
 S-SIGMA  C 10   0.000003   0.000012   0.000119   0.000001   0.000033   0.000026
 P-SIGMA  C 10   0.000011   0.000027   0.000312   0.000001   0.000038   0.000067
   P-PI   C 10   0.000001   0.000001   0.000026   0.000000   0.000044   0.000023
 S-SIGMA  C 11   0.000000   0.000001   0.000011   0.000000   0.000001   0.000004
 P-SIGMA  C 11   0.000000   0.000001   0.000018   0.000000   0.000000   0.000013
   P-PI   C 11   0.000000   0.000002   0.000097   0.000002   0.000017   0.000050
 S-SIGMA  H 12   0.000000   0.000000   0.000001   0.000000   0.000000   0.000000
 S-SIGMA  C 13   0.000000   0.000000   0.000002   0.000000   0.000000   0.000000
 P-SIGMA  C 13   0.000000   0.000000   0.000005   0.000000   0.000001   0.000001
   P-PI   C 13   0.000000   0.000000   0.000001   0.000000   0.000001   0.000002
 S-SIGMA  H 14   0.000000   0.000000   0.000001   0.000000   0.000000   0.000000
 S-SIGMA  C 15   0.000000   0.000000   0.000000   0.000000   0.000000   0.000000
 P-SIGMA  C 15   0.000000   0.000000   0.000000   0.000000   0.000000   0.000000
   P-PI   C 15   0.000000   0.000000   0.000058   0.000001   0.000003   0.000045
 S-SIGMA  H 16   0.000000   0.000000   0.000000   0.000000   0.000000   0.000000
 S-SIGMA  C 17   0.000000   0.000000   0.000001   0.000000   0.000000   0.000001
 P-SIGMA  C 17   0.000000   0.000000   0.000001   0.000000   0.000000   0.000006
   P-PI   C 17   0.000000   0.000001   0.000101   0.000003   0.000002   0.000073
 S-SIGMA  H 18   0.000000   0.000000   0.000001   0.000000   0.000000   0.000000
 S-SIGMA  C 19   0.000000   0.000000   0.000001   0.000000   0.000000   0.000000
 P-SIGMA  C 19   0.000000   0.000000   0.000003   0.000000   0.000001   0.000001
   P-PI   C 19   0.000000   0.000000   0.000001   0.000000   0.000000   0.000000
 S-SIGMA  H 20   0.000000   0.000000   0.000000   0.000000   0.000000   0.000000

                  S-SIGMA    P-SIGMA      P-PI     S-SIGMA    P-SIGMA      P-PI 
                    C  1       C  1       C  1       O  2       O  2       O  2
------------------------------------------------------------------------------
 S-SIGMA  O 21   0.000000   0.000000   0.000000   0.000000   0.000000   0.000000
 P-SIGMA  O 21   0.000000   0.000000   0.000000   0.000000   0.000000   0.000000
   P-PI   O 21   0.000000   0.000000   0.000000   0.000000   0.000000   0.000000
 S-SIGMA  H 22   0.000000   0.000000   0.000000   0.000000   0.000000   0.000000
 S-SIGMA  H 23   0.000000   0.000000   0.000000   0.000000   0.000000   0.000000
 S-SIGMA  O 24   0.000000   0.000002   0.000001   0.000005   0.000007   0.000000
 P-SIGMA  O 24   0.000006   0.000022   0.000006   0.000026   0.000005   0.000001
   P-PI   O 24   0.000003   0.000007   0.000003   0.000007   0.000003   0.000001
 S-SIGMA  H 25   0.000000   0.000000   0.000000   0.000001   0.000005   0.000000
 S-SIGMA  H 26   0.000000   0.000002   0.000003   0.000025   0.000119   0.000000
 S-SIGMA  O 27   0.000000   0.000000   0.000000   0.000000   0.000000   0.000000
 P-SIGMA  O 27   0.000000   0.000000   0.000000   0.000000   0.000000   0.000000
   P-PI   O 27   0.000000   0.000000   0.000000   0.000000   0.000000   0.000000
 S-SIGMA  H 28   0.000000   0.000000   0.000000   0.000000   0.000000   0.000000
 S-SIGMA  H 29   0.000000   0.000000   0.000000   0.000000   0.000000   0.000000
 S-SIGMA  O 30   0.000000   0.000000   0.000000   0.000000   0.000000   0.000000
 P-SIGMA  O 30   0.000000   0.000000   0.000000   0.000000   0.000000   0.000000
   P-PI   O 30   0.000000   0.000000   0.000001   0.000000   0.000000   0.000000
 S-SIGMA  H 31   0.000000   0.000000   0.000000   0.000000   0.000000   0.000000
 S-SIGMA  H 32   0.000000   0.000000   0.000000   0.000000   0.000000   0.000000
 S-SIGMA  O 33   0.000002   0.000004   0.000008   0.000014   0.000024   0.000012
 P-SIGMA  O 33   0.000009   0.000016   0.000016   0.000008   0.000015   0.000005
   P-PI   O 33   0.000003   0.000006   0.000032   0.000041   0.000058   0.000046
 S-SIGMA  H 34   0.000003   0.000005   0.000010   0.000011   0.000026   0.000006
 S-SIGMA  H 35   0.000001   0.000003   0.000005   0.000031   0.000346   0.000009
 S-SIGMA  O 36   0.000000   0.000000   0.000000   0.000000   0.000000   0.000000
 P-SIGMA  O 36   0.000000   0.000000   0.000000   0.000000   0.000001   0.000000
   P-PI   O 36   0.000000   0.000000   0.000000   0.000000   0.000000   0.000000
 S-SIGMA  H 37   0.000000   0.000000   0.000000   0.000000   0.000000   0.000000
 S-SIGMA  H 38   0.000000   0.000000   0.000000   0.000000   0.000000   0.000000
 S-SIGMA  O 39   0.000000   0.000000   0.000003   0.000000   0.000001   0.000002
 P-SIGMA  O 39   0.000003   0.000003   0.000030   0.000000   0.000007   0.000009
   P-PI   O 39   0.000000   0.000000   0.000007   0.000000   0.000002   0.000005
 S-SIGMA  H 40   0.000000   0.000000   0.000002   0.000000   0.000001   0.000002
 S-SIGMA  H 41   0.000000   0.000000   0.000002   0.000000   0.000001   0.000005
 S-SIGMA  O 42   0.000000   0.000002   0.000000   0.000002   0.000023   0.000002
 P-SIGMA  O 42   0.000000   0.000004   0.000001   0.000001   0.000005   0.000000
   P-PI   O 42   0.000000   0.000013   0.000014   0.000002   0.000000   0.000002
 S-SIGMA  H 43   0.000000   0.000000   0.000000   0.000001   0.000013   0.000002
 S-SIGMA  H 44   0.000000   0.000001   0.000000   0.000001   0.000012   0.000003
 S-SIGMA  O 45   0.000000   0.000001   0.000001   0.000002   0.000008   0.000004
 P-SIGMA  O 45   0.000003   0.000010   0.000021   0.000029   0.000042   0.000037
   P-PI   O 45   0.000001   0.000002   0.000007   0.000005   0.000008   0.000011
 S-SIGMA  H 46   0.000000   0.000000   0.000000   0.000000   0.000002   0.000001
 S-SIGMA  H 47   0.000000   0.000001   0.000003   0.000005   0.000043   0.000011
 S-SIGMA  O 48   0.000000   0.000000   0.000000   0.000000   0.000000   0.000000
 P-SIGMA  O 48   0.000000   0.000000   0.000000   0.000000   0.000000   0.000000

                  S-SIGMA    P-SIGMA      P-PI     S-SIGMA    P-SIGMA      P-PI 
                    C  1       C  1       C  1       O  2       O  2       O  2
------------------------------------------------------------------------------
   P-PI   O 48   0.000000   0.000000   0.000000   0.000000   0.000000   0.000000
 S-SIGMA  H 49   0.000000   0.000000   0.000000   0.000000   0.000000   0.000000
 S-SIGMA  H 50   0.000000   0.000000   0.000000   0.000000   0.000000   0.000000
 S-SIGMA  O 51   0.000007   0.000005   0.000317   0.000605   0.002010   0.000129
 P-SIGMA  O 51   0.000475   0.000183   0.004606   0.003849   0.004554   0.001120
   P-PI   O 51   0.000037   0.000009   0.000300   0.000022   0.000136   0.000041
 S-SIGMA  H 52   0.000069   0.000006   0.001131   0.006467   0.032455   0.000756
 S-SIGMA  H 53   0.000000   0.000006   0.000038   0.000040   0.000477   0.000001
 S-SIGMA  O 54   0.000000   0.000000   0.000001   0.000000   0.000001   0.000001
 P-SIGMA  O 54   0.000004   0.000003   0.000022   0.000000   0.000007   0.000008
   P-PI   O 54   0.000001   0.000001   0.000007   0.000000   0.000005   0.000005
 S-SIGMA  H 55   0.000000   0.000000   0.000004   0.000000   0.000002   0.000005
 S-SIGMA  H 56   0.000000   0.000000   0.000000   0.000000   0.000001   0.000001
 S-SIGMA  H 57   0.400689   0.517676   0.000731   0.000895   0.015308   0.002601
 S-SIGMA  H 58   0.001937   0.004267   0.000498   0.000033   0.000066   0.000138

                 S-SIGMA    P-SIGMA      P-PI     S-SIGMA    S-SIGMA    P-SIGMA
                  N  3       N  3       N  3       H  4       C  5       C  5
------------------------------------------------------------------------------
 S-SIGMA  N  3   0.688080
 P-SIGMA  N  3   0.000000   1.917390
   P-PI   N  3   0.000000   0.000000   0.612226
 S-SIGMA  H  4   0.227711   0.585729   0.000031   0.863462
 S-SIGMA  C  5   0.027377   0.155360   0.000719   0.000469   0.977500
 P-SIGMA  C  5   0.177897   0.526485   0.000355   0.009836   0.000000   2.847158
   P-PI   C  5   0.000657   0.000238   0.028476   0.002191   0.000000   0.000000
 S-SIGMA  H  6   0.000025   0.000493   0.000852   0.002899   0.267052   0.692190
 S-SIGMA  C  7   0.000260   0.001503   0.000941   0.000669   0.044931   0.190733
 P-SIGMA  C  7   0.000272   0.000499   0.000535   0.001230   0.179507   0.546649
   P-PI   C  7   0.000143   0.000599   0.001542   0.000314   0.000261   0.002163
 S-SIGMA  H  8   0.000210   0.000145   0.000115   0.000126   0.000198   0.000013
 S-SIGMA  H  9   0.000150   0.000060   0.000290   0.000207   0.000110   0.000004
 S-SIGMA  C 10   0.000519   0.001179   0.000032   0.000164   0.000232   0.000008
 P-SIGMA  C 10   0.001108   0.001831   0.000169   0.000346   0.000261   0.000469
   P-PI   C 10   0.000054   0.000409   0.000063   0.000061   0.000079   0.000643
 S-SIGMA  C 11   0.000005   0.000015   0.000001   0.000007   0.000113   0.000231
 P-SIGMA  C 11   0.000007   0.000003   0.000002   0.000002   0.000000   0.000002
   P-PI   C 11   0.000041   0.000194   0.000010   0.000052   0.001669   0.003042
 S-SIGMA  H 12   0.000003   0.000005   0.000001   0.000001   0.000002   0.000002
 S-SIGMA  C 13   0.000004   0.000008   0.000000   0.000002   0.000005   0.000001
 P-SIGMA  C 13   0.000009   0.000017   0.000001   0.000005   0.000011   0.000007
   P-PI   C 13   0.000002   0.000001   0.000008   0.000001   0.000000   0.000029
 S-SIGMA  H 14   0.000001   0.000002   0.000000   0.000001   0.000005   0.000005
 S-SIGMA  C 15   0.000001   0.000001   0.000000   0.000000   0.000002   0.000000
 P-SIGMA  C 15   0.000000   0.000000   0.000001   0.000000   0.000018   0.000036
   P-PI   C 15   0.000016   0.000080   0.000027   0.000020   0.000630   0.000829
 S-SIGMA  H 16   0.000000   0.000000   0.000000   0.000000   0.000000   0.000000
 S-SIGMA  C 17   0.000000   0.000004   0.000001   0.000002   0.000146   0.000081
 P-SIGMA  C 17   0.000001   0.000013   0.000006   0.000004   0.000460   0.000357
   P-PI   C 17   0.000042   0.000112   0.000070   0.000035   0.001037   0.000900
 S-SIGMA  H 18   0.000001   0.000004   0.000000   0.000001   0.000000   0.000029
 S-SIGMA  C 19   0.000002   0.000003   0.000000   0.000000   0.000003   0.000006
 P-SIGMA  C 19   0.000006   0.000011   0.000000   0.000002   0.000004   0.000012
   P-PI   C 19   0.000000   0.000003   0.000000   0.000000   0.000006   0.000009
 S-SIGMA  H 20   0.000001   0.000001   0.000000   0.000000   0.000000   0.000001
 S-SIGMA  O 21   0.000000   0.000000   0.000000   0.000000   0.000000   0.000000
 P-SIGMA  O 21   0.000000   0.000000   0.000000   0.000000   0.000000   0.000000
   P-PI   O 21   0.000000   0.000000   0.000000   0.000000   0.000000   0.000000
 S-SIGMA  H 22   0.000000   0.000000   0.000000   0.000000   0.000000   0.000000
 S-SIGMA  H 23   0.000000   0.000000   0.000000   0.000000   0.000000   0.000000
 S-SIGMA  O 24   0.000000   0.000000   0.000000   0.000000   0.000000   0.000000
 P-SIGMA  O 24   0.000000   0.000000   0.000000   0.000000   0.000000   0.000000
   P-PI   O 24   0.000000   0.000000   0.000001   0.000001   0.000000   0.000000
 S-SIGMA  H 25   0.000000   0.000000   0.000000   0.000000   0.000000   0.000001
 S-SIGMA  H 26   0.000000   0.000000   0.000001   0.000000   0.000000   0.000000

                  S-SIGMA    P-SIGMA      P-PI     S-SIGMA    S-SIGMA    P-SIGMA
                    N  3       N  3       N  3       H  4       C  5       C  5
------------------------------------------------------------------------------
 S-SIGMA  O 27   0.000000   0.000000   0.000000   0.000000   0.000000   0.000000
 P-SIGMA  O 27   0.000000   0.000000   0.000000   0.000000   0.000001   0.000001
   P-PI   O 27   0.000000   0.000000   0.000000   0.000000   0.000000   0.000001
 S-SIGMA  H 28   0.000000   0.000000   0.000000   0.000000   0.000000   0.000000
 S-SIGMA  H 29   0.000000   0.000000   0.000000   0.000000   0.000000   0.000000
 S-SIGMA  O 30   0.000000   0.000001   0.000001   0.000000   0.000000   0.000000
 P-SIGMA  O 30   0.000000   0.000000   0.000001   0.000003   0.000000   0.000000
   P-PI   O 30   0.000001   0.000002   0.000003   0.000000   0.000000   0.000000
 S-SIGMA  H 31   0.000000   0.000003   0.000000   0.000006   0.000000   0.000000
 S-SIGMA  H 32   0.000000   0.000001   0.000000   0.000001   0.000000   0.000000
 S-SIGMA  O 33   0.000000   0.000001   0.000001   0.000001   0.000000   0.000000
 P-SIGMA  O 33   0.000000   0.000000   0.000001   0.000001   0.000000   0.000000
   P-PI   O 33   0.000001   0.000002   0.000007   0.000002   0.000000   0.000000
 S-SIGMA  H 34   0.000000   0.000001   0.000001   0.000001   0.000000   0.000000
 S-SIGMA  H 35   0.000001   0.000002   0.000004   0.000001   0.000000   0.000000
[...]
 PZ  N   3   0.00001    -0.00033    -0.00107     0.00045     0.00006     0.79879
  
  S  H   4  -0.00003    -0.00248    -0.00811     0.00094    -0.00024     0.00038
  
  S  C   5  -0.00014     0.00029    -0.00040     0.00889     0.00001    -0.01020
 PX  C   5   0.00001     0.00083     0.00124     0.00033    -0.00000     0.00521
 PY  C   5   0.00010    -0.00001    -0.00045    -0.00425     0.00001     0.03969
 PZ  C   5  -0.00009    -0.00004     0.00023     0.01145    -0.00003     0.05623
  
  S  H   6   0.00009    -0.00004     0.00022    -0.02031    -0.00001    -0.02630
  
  S  C   7   0.00006    -0.00002     0.00024    -0.00044     0.00002     0.02860
 PX  C   7   0.00033    -0.00000    -0.00004     0.00007    -0.00000     0.00926
 PY  C   7  -0.00006    -0.00007     0.00017    -0.00087    -0.00000     0.02624
 PZ  C   7  -0.00001    -0.00006    -0.00003    -0.00043     0.00000     0.02201
  
  S  H   8   0.00025     0.00006     0.00007    -0.00037    -0.00005     0.00159
  
  S  H   9   0.00001     0.00001    -0.00006     0.00094    -0.00000    -0.00247
  
  S  C  10   0.00032    -0.00004    -0.00011    -0.00014    -0.00000    -0.00585
 PX  C  10   0.00074     0.00004     0.00015     0.00009     0.00000     0.00989
 PY  C  10   0.00028    -0.00004    -0.00007    -0.00021    -0.00001     0.00272
 PZ  C  10   0.00040    -0.00000     0.00001    -0.00007     0.00000     0.00346
  
  S  C  11  -0.00032     0.00000     0.00002    -0.00002    -0.00000     0.00128
 PX  C  11   0.00033    -0.00000    -0.00004     0.00005     0.00000    -0.00291
 PY  C  11  -0.00009     0.00000    -0.00002     0.00005     0.00000    -0.00323
 PZ  C  11  -0.00038     0.00001    -0.00001     0.00003    -0.00000     0.00018
  
  S  H  12   0.00012     0.00000     0.00001     0.00002     0.00000     0.00048
  
  S  C  13  -0.00014    -0.00000    -0.00001     0.00000    -0.00000    -0.00039
 PX  C  13  -0.00020     0.00001     0.00001     0.00004     0.00000    -0.00051
 PY  C  13  -0.00036     0.00000    -0.00001     0.00004    -0.00000    -0.00170
 PZ  C  13  -0.00022     0.00000     0.00000     0.00002    -0.00000    -0.00038
  
  S  H  14  -0.00006     0.00000     0.00001     0.00000     0.00000     0.00032
  
  S  C  15  -0.00026    -0.00000    -0.00000     0.00001    -0.00000    -0.00011
 PX  C  15   0.00029    -0.00000     0.00002    -0.00006     0.00000     0.00197
 PY  C  15   0.00011    -0.00000     0.00003    -0.00008    -0.00000     0.00261
 PZ  C  15  -0.00033    -0.00000     0.00001    -0.00001    -0.00000     0.00112
  
  S  H  16   0.00010    -0.00000    -0.00000    -0.00000     0.00000    -0.00011
  
  S  C  17  -0.00411     0.00000     0.00000     0.00026    -0.00002     0.00049
 PX  C  17   0.00277     0.00000    -0.00002    -0.00009     0.00002    -0.00245
 PY  C  17  -0.00117     0.00001    -0.00003     0.00019     0.00000    -0.00397
 PZ  C  17  -0.00425    -0.00000    -0.00003     0.00017    -0.00002    -0.00098
  
  S  H  18   0.00839     0.00000     0.00001    -0.00032     0.00001    -0.00027
  
  S  C  19  -0.00014    -0.00000    -0.00001    -0.00004     0.00000    -0.00040
 PX  C  19   0.00024     0.00000     0.00000     0.00005     0.00000     0.00008
 PY  C  19   0.00079    -0.00000    -0.00002     0.00000     0.00001    -0.00077
 PZ  C  19  -0.00032    -0.00000    -0.00000     0.00001     0.00000    -0.00018
  
  S  H  20   0.00062     0.00000     0.00001     0.00000     0.00000     0.00004
  
  S  O  21  -0.00000    -0.00000     0.00000     0.00000    -0.00000     0.00000
 PX  O  21  -0.00000     0.00000     0.00000     0.00000    -0.00000     0.00000
 PY  O  21   0.00000    -0.00000     0.00000     0.00000    -0.00000    -0.00000
 PZ  O  21  -0.00000     0.00000     0.00000     0.00000    -0.00000     0.00000
  
  S  H  22   0.00000    -0.00000    -0.00000     0.00000     0.00000    -0.00001
  
  S  H  23   0.00000    -0.00000    -0.00000     0.00000     0.00000    -0.00001
  
  S  O  24   0.00021     0.00000     0.00000    -0.00009    -0.00166    -0.00005
 PX  O  24  -0.00029    -0.00000    -0.00000     0.00003     0.00197     0.00011
 PY  O  24   0.00030     0.00000     0.00000    -0.00016    -0.00269    -0.00007
 PZ  O  24  -0.00019     0.00000    -0.00000    -0.00002     0.00040     0.00009
  
  S  H  25  -0.00039     0.00000    -0.00000     0.00008     0.00115     0.00006
  
  S  H  26  -0.00085    -0.00000    -0.00001     0.00018     0.00728     0.00019
  
  S  O  27  -0.00149    -0.00000    -0.00000    -0.00001    -0.00002    -0.00004
 PX  O  27   0.00039     0.00000     0.00000     0.00001     0.00003     0.00001
 PY  O  27  -0.00196     0.00000    -0.00000    -0.00001    -0.00001    -0.00007
 PZ  O  27  -0.00228     0.00000    -0.00000    -0.00002    -0.00003    -0.00007
  
  S  H  28   0.00115     0.00000     0.00000     0.00001     0.00004     0.00003
  
  S  H  29   0.00633    -0.00000     0.00000     0.00002     0.00003     0.00012
  
  S  O  30  -0.00000    -0.00000     0.00163    -0.00001     0.00000     0.00021
 PX  O  30  -0.00000     0.00000     0.00121    -0.00000     0.00000     0.00014
 PY  O  30  -0.00000    -0.00000     0.00269    -0.00001     0.00000     0.00033
 PZ  O  30   0.00000     0.00000    -0.00038     0.00000     0.00000    -0.00005
  
  S  H  31   0.00000     0.00000    -0.00587     0.00002    -0.00000    -0.00081
  
  S  H  32   0.00000     0.00000    -0.00257     0.00003    -0.00000    -0.00036
  
  S  O  33   0.00004     0.00000     0.00001    -0.00017    -0.00022     0.00034
 PX  O  33  -0.00001     0.00000     0.00000    -0.00005     0.35642     0.00007
 PY  O  33   0.00002     0.00000     0.00001    -0.00027    -0.56975     0.00063
 PZ  O  33   0.00003     0.00000     0.00000    -0.00023     0.74045     0.00048
  
  S  H  34  -0.00006    -0.00000    -0.00001     0.00020     0.00011    -0.00044
  
  S  H  35  -0.00011    -0.00000    -0.00001     0.00036     0.00007    -0.00081
  
  S  O  36  -0.00378     0.00000    -0.00000    -0.00051    -0.00002     0.00006
 PX  O  36   0.00672    -0.00000     0.00000     0.00087     0.00006    -0.00013
 PY  O  36   0.00109     0.00000    -0.00000    -0.00030     0.00000     0.00001
 PZ  O  36   0.00505    -0.00000     0.00000    -0.00013     0.00003    -0.00005
  
  S  H  37   0.01776    -0.00000     0.00000     0.00092     0.00006    -0.00015
  
  S  H  38   0.00147    -0.00000     0.00000     0.00157     0.00002    -0.00008
  
  S  O  39   0.00000    -0.00018     0.00642    -0.00002     0.00000     0.00019
 PX  O  39  -0.00000     0.00030    -0.12893     0.00003    -0.00001    -0.00032
 PY  O  39  -0.00000     0.00000     0.98047     0.00001    -0.00000    -0.00004
 PZ  O  39   0.00000    -0.00016    -0.14792    -0.00002     0.00000     0.00011
  
  S  H  40  -0.00000     0.00019     0.00003     0.00002    -0.00000    -0.00034
  
  S  H  41  -0.00000     0.00077     0.00010     0.00004    -0.00001    -0.00069
  
  S  O  42  -0.00004     0.00007    -0.00001    -0.01162    -0.00008     0.00063
 PX  O  42  -0.00005     0.00001    -0.00001    -0.22770     0.00002     0.00033
 PY  O  42   0.00004     0.00013    -0.00000    -0.30786     0.00002     0.00004
 PZ  O  42  -0.00002     0.00005     0.00000     0.92225    -0.00003     0.00024
  
  S  H  43   0.00002    -0.00028     0.00001     0.00086     0.00011    -0.00105
  
  S  H  44   0.00009    -0.00006     0.00001     0.00142     0.00011    -0.00157
  
  S  O  45  -0.00713     0.00000     0.00000    -0.00068    -0.00042     0.00037
 PX  O  45   0.69544    -0.00000    -0.00000     0.00080     0.00054    -0.00048
 PY  O  45   0.34318     0.00000     0.00000    -0.00164    -0.00036     0.00098
 PZ  O  45  -0.63084     0.00000    -0.00000     0.00002     0.00039    -0.00000
  
  S  H  46   0.00045    -0.00000    -0.00000     0.00042     0.00090    -0.00024
  
  S  H  47  -0.00043    -0.00000    -0.00000     0.00218     0.00106    -0.00125
  
  S  O  48   0.00000    -0.00000     0.00002    -0.00002    -0.00000     0.00011
 PX  O  48   0.00000     0.00000    -0.00001     0.00000     0.00000    -0.00001
 PY  O  48   0.00000    -0.00000     0.00006    -0.00004    -0.00000     0.00020
 PZ  O  48  -0.00000     0.00000    -0.00002     0.00002     0.00000    -0.00006
  
  S  H  49  -0.00000     0.00000    -0.00001     0.00003     0.00000    -0.00015
  
  S  H  50  -0.00000     0.00000    -0.00007     0.00007     0.00000    -0.00036
  
  S  O  51  -0.00012     0.00001     0.00001    -0.00832    -0.00058     0.00354
 PX  O  51  -0.00014     0.00001    -0.00001    -0.01173    -0.00014    -0.00187
 PY  O  51  -0.00014     0.00002     0.00001    -0.01319    -0.00050     0.00364
 PZ  O  51   0.00009    -0.00002    -0.00003    -0.00043     0.00066    -0.00797
  
  S  H  52   0.00027    -0.00003    -0.00004     0.00372     0.00180    -0.01243
  
  S  H  53   0.00030    -0.00002    -0.00000     0.04046     0.00114    -0.00316
  
  S  O  54   0.00000     0.00300     0.00016     0.00001     0.00000    -0.00071
 PX  O  54  -0.00000    -0.06989    -0.00001     0.00001    -0.00000     0.00090
 PY  O  54  -0.00000     0.83768    -0.00020    -0.00001    -0.00000     0.00050
 PZ  O  54  -0.00000    -0.54165    -0.00028    -0.00001    -0.00000     0.00069
  
  S  H  55  -0.00000     0.00002    -0.00019    -0.00002    -0.00001     0.00332
  
  S  H  56  -0.00000     0.00002    -0.00055    -0.00004    -0.00000     0.00122
  
  S  H  57   0.00001     0.00003     0.00006    -0.00008    -0.00025    -0.00185
  
  S  H  58  -0.00000    -0.00089    -0.00023    -0.00053    -0.00001    -0.00538




    ROOT NO.   73          74          75          76          77

           -11.56612   -11.55592   -10.77739   -10.66960   -10.43993
  
  
  S  C   1   0.04093     0.00008    -0.00047    -0.00030     0.00028
 PX  C   1   0.15325     0.00021    -0.00203    -0.00180     0.00152
 PY  C   1   0.00567     0.00001    -0.00255    -0.00246     0.00207
 PZ  C   1  -0.03519     0.00000    -0.00269    -0.00295     0.00256
  
  S  O   2   0.00238    -0.00001    -0.00032    -0.00030     0.00024
 PX  O   2   0.94989    -0.00006     0.00014     0.00012    -0.00009
 PY  O   2  -0.21762    -0.00004     0.00010     0.00014    -0.00016
 PZ  O   2  -0.07827     0.00002     0.00153     0.00152    -0.00132
  
  S  N   3  -0.06550    -0.00032     0.00287     0.00216    -0.00173
 PX  N   3   0.05198     0.00003     0.00287     0.00225    -0.00173
 PY  N   3   0.02816    -0.00033    -0.00258    -0.00214     0.00177
 PZ  N   3  -0.02521     0.00012    -0.00011    -0.00013     0.00027
  
  S  H   4   0.04322     0.00091    -0.00269    -0.00223     0.00190
  
  S  C   5   0.00983    -0.00005    -0.01694    -0.01575     0.01150
 PX  C   5  -0.03412    -0.00016     0.00439     0.00240    -0.00221
 PY  C   5   0.01640     0.00004     0.01621     0.01705    -0.01328
 PZ  C   5  -0.00860     0.00001     0.01525     0.01529    -0.01184
  
  S  H   6   0.00600    -0.00014     0.00227    -0.00040     0.00007
  
  S  C   7  -0.00676    -0.00158     0.00365     0.00354    -0.00289
 PX  C   7   0.00503     0.00022    -0.00079    -0.00071     0.00136
 PY  C   7   0.00491    -0.00072     0.01212     0.01198    -0.00619
 PZ  C   7  -0.00085     0.00236     0.00717     0.00719    -0.00464
  
  S  H   8   0.01003    -0.00005     0.01838     0.01999    -0.01522
  
  S  H   9  -0.00087     0.00398     0.00191     0.00098    -0.00127
  
  S  C  10   0.00306     0.00008    -0.00303    -0.00231     0.00255
 PX  C  10  -0.00278    -0.00008     0.24348     0.23327    -0.13251
 PY  C  10   0.00357     0.00004     0.36918     0.35304    -0.20168
 PZ  C  10  -0.00022     0.00016     0.12983     0.12741    -0.07170
  
  S  C  11  -0.00065     0.00022     0.00050     0.00316    -0.00167
 PX  C  11   0.00033    -0.00011     0.00843     0.37196    -0.01330
 PY  C  11  -0.00028     0.00008     0.01006     0.56151    -0.01690
 PZ  C  11  -0.00083    -0.00006     0.00443     0.22959    -0.00800
  
  S  H  12  -0.00025    -0.00036    -0.00073    -0.00191     0.00056
  
  S  C  13   0.00028    -0.00001    -0.00056    -0.00109     0.00060
 PX  C  13  -0.00051    -0.00000    -0.11393     0.26771     0.23840
 PY  C  13   0.00006    -0.00002    -0.16733     0.38845     0.35071
 PZ  C  13  -0.00013    -0.00002    -0.06636     0.15589     0.13692
  
  S  H  14  -0.00020     0.00001     0.00140    -0.00242    -0.00298
  
  S  C  15   0.00009     0.00002    -0.00087    -0.00032     0.00722
 PX  C  15   0.00011     0.00000    -0.00861     0.01048     0.39029
 PY  C  15   0.00025     0.00002    -0.01296     0.01544     0.55728
 PZ  C  15   0.00002     0.00000    -0.00657     0.00776     0.20570
  
  S  H  16   0.00005    -0.00000     0.00025     0.00028    -0.00337
  
  S  C  17  -0.00015    -0.00014     0.00422    -0.00074    -0.00058
 PX  C  17  -0.00012     0.00002     0.38793    -0.00254    -0.00117
 PY  C  17  -0.00030    -0.00010     0.58000    -0.00650     0.00083
 PZ  C  17  -0.00030     0.00014     0.18898    -0.00080    -0.00001
  
  S  H  18   0.00001    -0.00003    -0.00061    -0.00036     0.00029
  
  S  C  19   0.00021     0.00003     0.00055    -0.00122     0.00145
 PX  C  19  -0.00027    -0.00002     0.25695    -0.12257     0.26320
 PY  C  19   0.00022     0.00003     0.36653    -0.17541     0.37949
 PZ  C  19   0.00001     0.00001     0.12701    -0.06078     0.13383
  
  S  H  20  -0.00005    -0.00003    -0.00168     0.00104    -0.00217
  
  S  O  21  -0.00000     0.00000    -0.00003     0.00002     0.00018
 PX  O  21  -0.00000     0.00000    -0.00004     0.00000     0.00034
 PY  O  21  -0.00000     0.00000     0.00002     0.00001    -0.00019
 PZ  O  21  -0.00000     0.00000     0.00000     0.00001    -0.00000
  
  S  H  22   0.00000    -0.00000     0.00009    -0.00002    -0.00060
  
  S  H  23   0.00000    -0.00000     0.00009    -0.00003    -0.00059
  
  S  O  24  -0.00021    -0.00000     0.00012    -0.00009     0.00008
 PX  O  24   0.00002     0.00000     0.00006     0.00003     0.00001
 PY  O  24  -0.00030    -0.00000    -0.00002    -0.00011     0.00009
 PZ  O  24   0.00015     0.00000    -0.00012     0.00011    -0.00011
  
  S  H  25   0.00046     0.00000    -0.00062     0.00020    -0.00016
  
  S  H  26   0.00028     0.00000    -0.00014     0.00023    -0.00016
  
  S  O  27  -0.00001    -0.00000     0.00607    -0.00172     0.00312
 PX  O  27   0.00001    -0.00000    -0.00162     0.00039    -0.00111
 PY  O  27  -0.00002    -0.00000     0.00727    -0.00237     0.00406
 PZ  O  27  -0.00003    -0.00000     0.00897    -0.00276     0.00495
  
  S  H  28   0.00001    -0.00000    -0.00726     0.00255    -0.00463
  
  S  H  29   0.00003     0.00000    -0.03026     0.00744    -0.01298
  
  S  O  30  -0.00007    -0.00067    -0.00002    -0.00001     0.00001
 PX  O  30  -0.00005    -0.48790    -0.00001    -0.00002     0.00000
 PY  O  30  -0.00017     0.33643    -0.00002    -0.00003     0.00001
 PZ  O  30  -0.00002     0.80543    -0.00001    -0.00001     0.00000
  
  S  H  31   0.00018    -0.00005     0.00004     0.00008    -0.00003
  
  S  H  32   0.00008    -0.00001     0.00004     0.00002    -0.00003
  
  S  O  33   0.00171    -0.00000    -0.00001    -0.00002     0.00002
 PX  O  33  -0.00098    -0.00000     0.00000    -0.00000     0.00000
 PY  O  33   0.00210    -0.00000    -0.00003    -0.00003     0.00002
 PZ  O  33   0.00206    -0.00000    -0.00002    -0.00002     0.00002
  
  S  H  34  -0.00240     0.00000     0.00002     0.00004    -0.00003
  
  S  H  35  -0.00710     0.00000     0.00004     0.00006    -0.00005
  
  S  O  36  -0.00007     0.00000     0.00000    -0.00000    -0.00000
 PX  O  36   0.00017    -0.00000    -0.00001     0.00001    -0.00000
 PY  O  36  -0.00001     0.00000    -0.00002     0.00001    -0.00001
 PZ  O  36   0.00007    -0.00000    -0.00005     0.00001    -0.00000
  
  S  H  37   0.00015    -0.00000    -0.00003     0.00002     0.00000
  
  S  H  38   0.00007    -0.00000     0.00008    -0.00002     0.00002
  
  S  O  39  -0.00060    -0.00086     0.00003     0.00002    -0.00002
 PX  O  39   0.00106     0.00128    -0.00005    -0.00004     0.00004
 PY  O  39   0.00037     0.00031    -0.00002    -0.00001     0.00001
 PZ  O  39  -0.00083     0.00087     0.00004     0.00003    -0.00003
  
  S  H  40   0.00067     0.00337    -0.00004    -0.00003     0.00003
  
  S  H  41   0.00146     0.00106    -0.00010    -0.00008     0.00007
  
  S  O  42  -0.00056     0.00000    -0.00018    -0.00004     0.00004
 PX  O  42   0.00031     0.00000    -0.00022    -0.00003     0.00002
 PY  O  42   0.00014     0.00000    -0.00008    -0.00004     0.00004
 PZ  O  42  -0.00003    -0.00000    -0.00004     0.00000    -0.00001
  
  S  H  43   0.00071    -0.00001     0.00024     0.00009    -0.00010
  
  S  H  44   0.00068    -0.00001     0.00082     0.00007    -0.00011
  
  S  O  45  -0.00079    -0.00000     0.00047    -0.00010     0.00009
 PX  O  45   0.00097     0.00000    -0.00056     0.00011    -0.00007
 PY  O  45  -0.00176     0.00000     0.00001    -0.00005     0.00003
 PZ  O  45   0.00014     0.00000    -0.00049     0.00011    -0.00018
  
  S  H  46   0.00062     0.00000    -0.00210     0.00033    -0.00016
  
  S  H  47   0.00250    -0.00000    -0.00105     0.00025    -0.00013
  
  S  O  48   0.00003     0.00047     0.00014     0.00069    -0.00013
 PX  O  48   0.00000    -0.00010     0.00012    -0.00025    -0.00002
 PY  O  48   0.00005     0.00084     0.00019     0.00075    -0.00014
 PZ  O  48  -0.00003    -0.00037    -0.00009    -0.00092     0.00012
  
  S  H  49  -0.00005    -0.00051    -0.00034    -0.00202     0.00040
  
  S  H  50  -0.00009    -0.00195    -0.00037    -0.00281     0.00051
  
  S  O  51  -0.00875     0.00000    -0.00012    -0.00014     0.00012
 PX  O  51   0.00350     0.00000     0.00004     0.00005    -0.00003
 PY  O  51  -0.00702     0.00000    -0.00020    -0.00014     0.00011
 PZ  O  51   0.01550     0.00000     0.00026     0.00029    -0.00025
  
  S  H  52   0.04217     0.00000     0.00039     0.00054    -0.00043
  
  S  H  53   0.00638    -0.00001     0.00022     0.00017    -0.00015
  
  S  O  54  -0.00052    -0.00002     0.00002     0.00001    -0.00001
 PX  O  54   0.00083     0.00002    -0.00005    -0.00004     0.00003
 PY  O  54   0.00071     0.00002    -0.00001    -0.00001     0.00001
 PZ  O  54   0.00078     0.00003    -0.00002    -0.00001     0.00001
  
  S  H  55   0.00138     0.00003    -0.00008    -0.00006     0.00006
  
  S  H  56   0.00071     0.00003    -0.00001     0.00001    -0.00000
  
  S  H  57   0.05768     0.00004     0.00081     0.00067    -0.00056
  
  S  H  58  -0.00320     0.00015     0.00244     0.00276    -0.00139

          BONDING CONTRIBUTION OF EACH M.O.

  1.8051  1.6419  1.9134  1.8639  0.0505  1.7018  1.7006  1.7549  1.7469  1.7074
  1.7208  1.7055  1.6863  1.6542  1.7305  1.7030  1.6948  1.6441  1.6419  0.0003
  1.6799  1.9994  1.6377  0.0000  1.9991  0.0001  1.6129  0.0002  1.7255  0.0001
  1.6409  1.5922  1.6800  0.0307  0.0541  1.6966  1.9970  0.0362  1.9928  1.6066
  0.0066  0.0010  0.0000  1.9925  1.9964  1.5940  1.8941  0.0082  1.9944  1.9590
  1.9373  1.9527  1.9528  1.9961  1.9379  1.9437  1.9576  1.9454  1.9517  1.0779
  0.0001  0.0001  0.0884  0.0001  0.0373  0.0000  0.0036  0.0001  0.0009  0.0171
  0.0005  1.0379  0.2663  0.0003  1.9714  2.0082  2.0014 -1.9831 -2.0215 -2.0311
 -1.9209 -2.0029 -1.7474 -1.8565 -1.7803 -1.7474 -1.7500 -1.7299 -1.7236 -1.8838
 -1.7504 -1.9368 -1.6985 -1.8617 -1.7189 -1.7115 -1.8773 -1.8498 -1.8944 -1.9672
 -1.8055 -1.9895 -1.9247 -1.9680 -1.9465 -1.7791 -1.9312 -1.9811 -1.9413 -1.9623
 -1.7527 -1.7520 -1.6942 -1.9422 -1.9309 -1.6926 -1.7137 -1.9436 -1.7148 -1.8012
 -1.6718 -1.6940 -1.8165 -1.7053 -1.7029 -1.6904 -1.6895

           DATA FOR GRAPH WRITTEN TO DISK

 **********************
 *                    *
 * JOB ENDED NORMALLY *
 *                    *
 **********************



 TOTAL JOB TIME:             0.61 SECONDS

 == MOPAC DONE ==
