 *******************************************************************************
 ** Site#: 34139        For non-commercial use only    Version 20.070L 64BITS **
 *******************************************************************************
 ** Cite this program as: MOPAC2016, Version: 20.070L, James J. P. Stewart,   **
 ** Stewart Computational Chemistry, web: HTTP://OpenMOPAC.net. Days left: 322**
 *******************************************************************************
 **                                                                           **
 **                                MOPAC2016                                  **
 **                                                                           **
 *******************************************************************************

                              PM7 CALCULATION RESULTS

 *******************************************************************************
 *  CALCULATION DONE:                                Thu Apr 23 14:14:16 2020  *
 *  PM7        - The PM7 Hamiltonian to be used
 *  QMMM       - Generate energies and gradients for use in MM codes
 *  DIPOLE     - PRINT DIPOLE INSTEAD OF ENERGY IN TRAJECTORIES
 *  GEO-OK     - OVERRIDE INTERATOMIC DISTANCE AND OTHER SAFETY CHECKS
 *
 *
 *
 *                 CHARGE ON SYSTEM = 0
 *
 *
 *
 *  LET        - OVERRIDE SOME SAFETY CHECKS
 *  XYZ        - CARTESIAN COORDINATE SYSTEM TO BE USED
 *  FORCE      - FORCE CALCULATION SPECIFIED
 *  1SCF       - DO 1 SCF AND THEN STOP 
 *  T=         - A TIME OF      2.0 MINUTES REQUESTED
 *  DUMP=N     - RESTART FILE WRITTEN EVERY  7200.000 SECONDS
 *  CUTOFF=    - CUTOFF FOR NDDO AND DIPOLE INTERACTIONS =  9.00A
 *  AUX        - OUTPUT AUXILIARY INFORMATION
 *  GRADIENTS  - ALL GRADIENTS TO BE PRINTED
 *  VECTORS    - FINAL EIGENVECTORS TO BE PRINTED
 *  EIGEN      - CONVERT LMO's INTO EIGENVECTORS
 *  LARGE      - EXPANDED OUTPUT TO BE PRINTED
 *  AIGOUT     - IN ARC FILE, INCLUDE AB-INITIO GEOMETRY
 *  GRAPH      - GENERATE FILE FOR GRAPHICS
 *  LOCALIZE   - LOCALIZED ORBITALS TO BE PRINTED
 *  PI         - BONDS MATRIX, SPLIT INTO SIGMA-PI-DELL COMPONENTS, TO BE PRINTED
 *******************************************************************************
PM7 XYZ T=2M 1SCF LOCALIZE AIGOUT GRAPH GRAPHF LARGE DIPOLE PI FORCE CUTOFF=9.0 AUX LET GRAD QMMM GEO-OK EIGEN VECTORS CHARGE=0
 Test System

   ATOM   CHEMICAL          X               Y               Z
  NUMBER   SYMBOL      (ANGSTROMS)     (ANGSTROMS)     (ANGSTROMS)
 
     1       C        -10.60756300  *   0.82640200  *   0.66158300  *
     2       O        -10.98797600  *  -0.10435700  *   1.36546300  *
     3       N         -9.33574700  *   0.99529600  *   0.23052200  *
     4       H         -9.02378500  *   1.79338200  *  -0.33141900  *
     5       C         -8.17327600  *   0.12096900  *   0.54988300  *
     6       H         -8.19416300  *  -0.16794100  *   1.63839100  *
     7       C         -8.16557700  *  -1.22855500  *  -0.25185200  *
     8       H         -7.17743800  *  -1.69402800  *  -0.18052500  *
     9       H         -8.75960900  *  -1.97587100  *   0.24357300  *
    10       C         -8.65537100  *  -1.11773500  *  -1.67401100  *
    11       C         -9.89866000  *  -1.66889000  *  -1.99958600  *
    12       H        -10.46272400  *  -2.23745200  *  -1.26983500  *
    13       C        -10.29868700  *  -1.58460300  *  -3.33405300  *
    14       H        -11.31545700  *  -1.85447500  *  -3.68360500  *
    15       C         -9.53754700  *  -0.96056600  *  -4.34437500  *
    16       H         -9.80240800  *  -0.87879000  *  -5.42367100  *
    17       C         -7.91453800  *  -0.46098500  *  -2.64452000  *
    18       H         -6.92033400  *   0.03462800  *  -2.53538000  *
    19       C         -8.35448300  *  -0.36014400  *  -3.97193900  *
    20       H         -7.72638600  *   0.08208800  *  -4.78535800  *
    21       O         -9.50796200  *   1.91951900  *  -2.70615400  *
    22       H         -9.50861300  *   1.70789500  *  -3.68695600  *
    23       H         -8.62190300  *   2.29276200  *  -2.57870600  *
    24       O         -7.15627200  *  -3.45496500  *  -4.69331600  *
    25       H         -7.66793900  *  -2.74485500  *  -4.32773500  *
    26       H         -7.92220700  *  -4.09464300  *  -5.05640900  *
    27       O        -10.00489000  *   1.76587300  *  -5.28282400  *
    28       H         -9.43622400  *   1.21679000  *  -5.84698700  *
    29       H         -9.64010200  *   2.73401000  *  -5.48441400  *
    30       O        -12.89086400  *  -3.95253700  *  -4.70419900  *
    31       H        -12.56054000  *  -4.82645700  *  -4.57601400  *
    32       H        -13.41992900  *  -3.83172200  *  -3.86964100  *
    33       O        -11.16740000  *  -2.36044400  *  -6.24134700  *
    34       H        -11.48613100  *  -2.95808100  *  -5.54923200  *
    35       H        -10.39011000  *  -2.73054700  *  -6.68474000  *
    36       O         -5.33364000  *   0.34824000  *  -7.17544900  *
    37       H         -5.91670000  *  -0.24344100  *  -6.75782100  *
    38       H         -5.63791700  *   1.28131700  *  -7.03041000  *
    39       O        -12.70701300  *  -2.11436000  *   0.93508500  *
    40       H        -12.31658000  *  -3.08159300  *   1.11326500  *
    41       H        -12.00191800  *  -1.48474300  *   1.19045200  *
    42       O        -10.33285000  *  -1.98101700  *   2.93186700  *
    43       H        -11.08207700  *  -1.65347000  *   3.48382400  *
    44       H        -10.40385100  *  -1.34993700  *   2.31312900  *
    45       O         -7.16428500  *  -1.62928800  *  -6.56322400  *
    46       H         -6.70431100  *  -1.96453300  *  -7.38616600  *
    47       H         -6.92013400  *  -2.29228100  *  -5.91019300  *
    48       O         -9.27257900  *   3.79039000  *  -1.11468900  *
    49       H         -9.53788100  *   4.05625800  *  -2.02532200  *
    50       H         -8.37553500  *   4.18070300  *  -1.13885500  *
    51       O        -12.82784800  *  -0.38050800  *  -6.91418100  *
    52       H        -12.13495300  *  -0.02375400  *  -7.61163500  *
    53       H        -12.25329300  *  -1.09528800  *  -6.55825600  *
    54       O         -8.82431600  *   0.31943800  *  -7.27970600  *
    55       H         -8.20020400  *   0.91417900  *  -7.85289000  *
    56       H         -8.40123000  *  -0.47649500  *  -7.09899500  *
    57       O        -11.06261500  *   0.43101100  *  -8.62038600  *
    58       H        -10.30284200  *   0.48456500  *  -7.96500700  *
    59       H        -10.71997800  *  -0.31723200  *  -9.20844500  *
    60       O         -8.47336800  *  -4.53603500  *  -0.32417700  *
    61       H         -9.09179900  *  -4.76318400  *  -1.08029400  *
    62       H         -7.48962400  *  -4.54868900  *  -0.54012900  *
    63       O         -7.92702700  *   4.67106800  *   1.12953900  *
    64       H         -7.61013100  *   4.51480100  *   0.23941500  *
    65       H         -7.15923700  *   5.02450300  *   1.50932400  *
    66       O         -7.18267800  *   3.19981000  *  -2.88528800  *
    67       H         -6.71303800  *   2.67755500  *  -2.27585900  *
    68       H         -6.76097900  *   3.02597500  *  -3.70515300  *
    69       O        -12.38626400  *   0.69348200  *  -4.49564100  *
    70       H        -11.45287300  *   0.99593300  *  -4.66768400  *
    71       H        -12.66013300  *   0.40301600  *  -5.38988100  *
    72       H        -11.34924400  *   1.53966100  *   0.30204000  *
    73       H         -7.31089400  *   0.73365300  *   0.28717200  *
 


          CARTESIAN COORDINATES 

    NO.       ATOM           X           Y           Z

     1         C        -10.6076      0.8264      0.6616
     2         O        -10.9880     -0.1044      1.3655
     3         N         -9.3357      0.9953      0.2305
     4         H         -9.0238      1.7934     -0.3314
     5         C         -8.1733      0.1210      0.5499
     6         H         -8.1942     -0.1679      1.6384
     7         C         -8.1656     -1.2286     -0.2519
     8         H         -7.1774     -1.6940     -0.1805
     9         H         -8.7596     -1.9759      0.2436
    10         C         -8.6554     -1.1177     -1.6740
    11         C         -9.8987     -1.6689     -1.9996
    12         H        -10.4627     -2.2375     -1.2698
    13         C        -10.2987     -1.5846     -3.3341
    14         H        -11.3155     -1.8545     -3.6836
    15         C         -9.5375     -0.9606     -4.3444
    16         H         -9.8024     -0.8788     -5.4237
    17         C         -7.9145     -0.4610     -2.6445
    18         H         -6.9203      0.0346     -2.5354
    19         C         -8.3545     -0.3601     -3.9719
    20         H         -7.7264      0.0821     -4.7854
    21         O         -9.5080      1.9195     -2.7062
    22         H         -9.5086      1.7079     -3.6870
    23         H         -8.6219      2.2928     -2.5787
    24         O         -7.1563     -3.4550     -4.6933
    25         H         -7.6679     -2.7449     -4.3277
    26         H         -7.9222     -4.0946     -5.0564
    27         O        -10.0049      1.7659     -5.2828
    28         H         -9.4362      1.2168     -5.8470
    29         H         -9.6401      2.7340     -5.4844
    30         O        -12.8909     -3.9525     -4.7042
    31         H        -12.5605     -4.8265     -4.5760
    32         H        -13.4199     -3.8317     -3.8696
    33         O        -11.1674     -2.3604     -6.2413
    34         H        -11.4861     -2.9581     -5.5492
    35         H        -10.3901     -2.7305     -6.6847
    36         O         -5.3336      0.3482     -7.1754
    37         H         -5.9167     -0.2434     -6.7578
    38         H         -5.6379      1.2813     -7.0304
    39         O        -12.7070     -2.1144      0.9351
    40         H        -12.3166     -3.0816      1.1133
    41         H        -12.0019     -1.4847      1.1905
    42         O        -10.3329     -1.9810      2.9319
    43         H        -11.0821     -1.6535      3.4838
    44         H        -10.4039     -1.3499      2.3131
    45         O         -7.1643     -1.6293     -6.5632
    46         H         -6.7043     -1.9645     -7.3862
    47         H         -6.9201     -2.2923     -5.9102
    48         O         -9.2726      3.7904     -1.1147
    49         H         -9.5379      4.0563     -2.0253
    50         H         -8.3755      4.1807     -1.1389
    51         O        -12.8278     -0.3805     -6.9142
    52         H        -12.1350     -0.0238     -7.6116
    53         H        -12.2533     -1.0953     -6.5583
    54         O         -8.8243      0.3194     -7.2797
    55         H         -8.2002      0.9142     -7.8529
    56         H         -8.4012     -0.4765     -7.0990
    57         O        -11.0626      0.4310     -8.6204
    58         H        -10.3028      0.4846     -7.9650
    59         H        -10.7200     -0.3172     -9.2084
    60         O         -8.4734     -4.5360     -0.3242
    61         H         -9.0918     -4.7632     -1.0803
    62         H         -7.4896     -4.5487     -0.5401
    63         O         -7.9270      4.6711      1.1295
    64         H         -7.6101      4.5148      0.2394
    65         H         -7.1592      5.0245      1.5093
    66         O         -7.1827      3.1998     -2.8853
    67         H         -6.7130      2.6776     -2.2759
    68         H         -6.7610      3.0260     -3.7052
    69         O        -12.3863      0.6935     -4.4956
    70         H        -11.4529      0.9959     -4.6677
    71         H        -12.6601      0.4030     -5.3899
    72         H        -11.3492      1.5397      0.3020
    73         H         -7.3109      0.7337      0.2872

 General Reference for PM7:
 "Optimization of Parameters for Semiempirical Methods VI: More Modifications to the 
 NDDO Approximations and Re-optimization of Parameters", J. J. P. Stewart, J. Mol. Mod., 1:32, 19 (2013)
 http://www.springerlink.com/openurl.asp?genre=article&id=doi:10.1007/s00894-012-1667-x

           Empirical Formula: C9 H45 N O18  =    73 atoms



      MOLECULAR POINT GROUP   :   C1  


      RHF CALCULATION, NO. OF DOUBLY OCCUPIED LEVELS = 97


 -------------------------------------------------------------------------------
 PM7 XYZ T=2M 1SCF LOCALIZE AIGOUT GRAPH GRAPHF LARGE DIPOLE PI FORCE CUTOFF=9.0 AUX LET GRAD QMMM GEO-OK EIGEN VECTORS CHARGE=0
 Test System



     1SCF WAS SPECIFIED, SO BFGS WAS NOT USED                 
     SCF FIELD WAS ACHIEVED                                   


                              PM7 CALCULATION
                                                       MOPAC2016 (Version: 20.070L)
                                                       Thu Apr 23 14:14:16 2020
                                                       No. of days remaining = 322




          FINAL HEAT OF FORMATION =      -1318.40210 KCAL/MOL =   -5516.19439 KJ/MOL


          TOTAL ENERGY            =      -7230.71515 EV
          ELECTRONIC ENERGY       =     -60743.21854 EV  POINT GROUP:     C1  
          CORE-CORE REPULSION     =      53512.50338 EV
          COSMO AREA              =        474.07 SQUARE ANGSTROMS
          COSMO VOLUME            =        649.51 CUBIC ANGSTROMS

          GRADIENT NORM           =        272.67063 = 31.91368 PER ATOM
          IONIZATION POTENTIAL    =          7.790896 EV
          HOMO LUMO ENERGIES (EV) =         -7.791  1.882
          NO. OF FILLED LEVELS    =         97
          MOLECULAR WEIGHT        =        455.4504

          MOLECULAR DIMENSIONS (Angstroms)

            Atom       Atom       Distance
            H    65    H    31    12.77681
            H    43    O    36    12.22514
            O    51    H    62     8.34439


          SCF CALCULATIONS        =          1
 
          WALL-CLOCK TIME         =          0.207 SECONDS
          COMPUTATION TIME        =          0.201 SECONDS

          LARGEST ATOMIC GRADIENTS

          Atom     Label                     Cartesian Gradients           Cartesian Coordinates       |Gradient|
                                           X          Y          Z        X          Y          Z

            54       O                 -10.418    -63.425     19.672   -8.82432    0.31944   -7.27971     67.218
            39       O                 -28.437     53.455    -14.479  -12.70701   -2.11436    0.93509     62.256
            24       O                  37.626     41.428     26.169   -7.15627   -3.45497   -4.69332     61.780
            27       O                 -41.580    -35.939     27.427  -10.00489    1.76587   -5.28282     61.423
            40       H                  18.068    -55.074      7.952  -12.31658   -3.08159    1.11326     58.505
            44       H                 -13.636    -31.982     46.864  -10.40385   -1.34994    2.31313     58.353
            42       O                  13.172     27.062    -46.211  -10.33285   -1.98102    2.93187     55.148
            26       H                 -41.139    -27.977    -19.361   -7.92221   -4.09464   -5.05641     53.385
            29       H                  29.711     40.732    -10.929   -9.64010    2.73401   -5.48441     51.588
            45       O                 -28.496     -7.803     35.690   -7.16428   -1.62929   -6.56322     46.332



       FINAL  POINT  AND  DERIVATIVES

   PARAMETER     ATOM    TYPE            VALUE        GRADIENT
      1          1  C    CARTESIAN X   -10.607563    -11.592825  KCAL/ANGSTROM
      2          1  C    CARTESIAN Y     0.826402     -6.277053  KCAL/ANGSTROM
      3          1  C    CARTESIAN Z     0.661583     26.435458  KCAL/ANGSTROM
      4          2  O    CARTESIAN X   -10.987976    -12.194329  KCAL/ANGSTROM
      5          2  O    CARTESIAN Y    -0.104357     -1.437040  KCAL/ANGSTROM
      6          2  O    CARTESIAN Z     1.365463     -6.830755  KCAL/ANGSTROM
      7          3  N    CARTESIAN X    -9.335747    -18.567384  KCAL/ANGSTROM
      8          3  N    CARTESIAN Y     0.995296     12.655772  KCAL/ANGSTROM
      9          3  N    CARTESIAN Z     0.230522    -12.771307  KCAL/ANGSTROM
     10          4  H    CARTESIAN X    -9.023785     31.974830  KCAL/ANGSTROM
     11          4  H    CARTESIAN Y     1.793382     -8.884185  KCAL/ANGSTROM
     12          4  H    CARTESIAN Z    -0.331419      5.542218  KCAL/ANGSTROM
     13          5  C    CARTESIAN X    -8.173276     29.471224  KCAL/ANGSTROM
     14          5  C    CARTESIAN Y     0.120969     24.274493  KCAL/ANGSTROM
     15          5  C    CARTESIAN Z     0.549883      1.462092  KCAL/ANGSTROM
     16          6  H    CARTESIAN X    -8.194163      0.156697  KCAL/ANGSTROM
     17          6  H    CARTESIAN Y    -0.167941     -6.142417  KCAL/ANGSTROM
     18          6  H    CARTESIAN Z     1.638391      4.739877  KCAL/ANGSTROM
     19          7  C    CARTESIAN X    -8.165577     -1.150169  KCAL/ANGSTROM
     20          7  C    CARTESIAN Y    -1.228555    -21.613923  KCAL/ANGSTROM
     21          7  C    CARTESIAN Z    -0.251852     10.935610  KCAL/ANGSTROM
     22          8  H    CARTESIAN X    -7.177438    -10.011315  KCAL/ANGSTROM
     23          8  H    CARTESIAN Y    -1.694028     -2.070755  KCAL/ANGSTROM
     24          8  H    CARTESIAN Z    -0.180525      4.117523  KCAL/ANGSTROM
     25          9  H    CARTESIAN X    -8.759609     17.719341  KCAL/ANGSTROM
     26          9  H    CARTESIAN Y    -1.975871     12.322422  KCAL/ANGSTROM
     27          9  H    CARTESIAN Z     0.243573    -17.360751  KCAL/ANGSTROM
     28         10  C    CARTESIAN X    -8.655371    -13.790378  KCAL/ANGSTROM
     29         10  C    CARTESIAN Y    -1.117735    -14.195024  KCAL/ANGSTROM
     30         10  C    CARTESIAN Z    -1.674011    -15.611551  KCAL/ANGSTROM
     31         11  C    CARTESIAN X    -9.898660     -8.979773  KCAL/ANGSTROM
     32         11  C    CARTESIAN Y    -1.668890      9.467170  KCAL/ANGSTROM
     33         11  C    CARTESIAN Z    -1.999586     31.991723  KCAL/ANGSTROM
     34         12  H    CARTESIAN X   -10.462724      7.524302  KCAL/ANGSTROM
     35         12  H    CARTESIAN Y    -2.237452     -6.066398  KCAL/ANGSTROM
     36         12  H    CARTESIAN Z    -1.269835     -1.767060  KCAL/ANGSTROM
     37         13  C    CARTESIAN X   -10.298687     19.852165  KCAL/ANGSTROM
     38         13  C    CARTESIAN Y    -1.584603    -11.477421  KCAL/ANGSTROM
     39         13  C    CARTESIAN Z    -3.334053     21.863129  KCAL/ANGSTROM
     40         14  H    CARTESIAN X   -11.315457     -4.935057  KCAL/ANGSTROM
     41         14  H    CARTESIAN Y    -1.854475      6.891832  KCAL/ANGSTROM
     42         14  H    CARTESIAN Z    -3.683605    -12.705927  KCAL/ANGSTROM
     43         15  C    CARTESIAN X    -9.537547      2.164170  KCAL/ANGSTROM
     44         15  C    CARTESIAN Y    -0.960566      4.159616  KCAL/ANGSTROM
     45         15  C    CARTESIAN Z    -4.344375     -5.374363  KCAL/ANGSTROM
     46         16  H    CARTESIAN X    -9.802408     12.641874  KCAL/ANGSTROM
     47         16  H    CARTESIAN Y    -0.878790      6.899634  KCAL/ANGSTROM
     48         16  H    CARTESIAN Z    -5.423671    -20.207861  KCAL/ANGSTROM
     49         17  C    CARTESIAN X    -7.914538    -24.289482  KCAL/ANGSTROM
     50         17  C    CARTESIAN Y    -0.460985    -18.383997  KCAL/ANGSTROM
     51         17  C    CARTESIAN Z    -2.644520     22.332729  KCAL/ANGSTROM
     52         18  H    CARTESIAN X    -6.920334     13.430995  KCAL/ANGSTROM
     53         18  H    CARTESIAN Y     0.034628     12.119116  KCAL/ANGSTROM
     54         18  H    CARTESIAN Z    -2.535380    -20.416086  KCAL/ANGSTROM
     55         19  C    CARTESIAN X    -8.354483    -21.299953  KCAL/ANGSTROM
     56         19  C    CARTESIAN Y    -0.360144      7.977232  KCAL/ANGSTROM
     57         19  C    CARTESIAN Z    -3.971939      8.509723  KCAL/ANGSTROM
     58         20  H    CARTESIAN X    -7.726386      7.010988  KCAL/ANGSTROM
     59         20  H    CARTESIAN Y     0.082088      1.667420  KCAL/ANGSTROM
     60         20  H    CARTESIAN Z    -4.785358    -18.282351  KCAL/ANGSTROM
     61         21  O    CARTESIAN X    -9.507962    -24.037977  KCAL/ANGSTROM
     62         21  O    CARTESIAN Y     1.919519      2.319934  KCAL/ANGSTROM
     63         21  O    CARTESIAN Z    -2.706154     22.693302  KCAL/ANGSTROM
     64         22  H    CARTESIAN X    -9.508613     21.984240  KCAL/ANGSTROM
     65         22  H    CARTESIAN Y     1.707895      1.529292  KCAL/ANGSTROM
     66         22  H    CARTESIAN Z    -3.686956    -24.412849  KCAL/ANGSTROM
     67         23  H    CARTESIAN X    -8.621903     13.492635  KCAL/ANGSTROM
     68         23  H    CARTESIAN Y     2.292762     -0.276159  KCAL/ANGSTROM
     69         23  H    CARTESIAN Z    -2.578706     -0.937680  KCAL/ANGSTROM
     70         24  O    CARTESIAN X    -7.156272     37.626179  KCAL/ANGSTROM
     71         24  O    CARTESIAN Y    -3.454965     41.427610  KCAL/ANGSTROM
     72         24  O    CARTESIAN Z    -4.693316     26.168657  KCAL/ANGSTROM
     73         25  H    CARTESIAN X    -7.667939      7.406041  KCAL/ANGSTROM
     74         25  H    CARTESIAN Y    -2.744855    -12.188176  KCAL/ANGSTROM
     75         25  H    CARTESIAN Z    -4.327735    -15.784011  KCAL/ANGSTROM
     76         26  H    CARTESIAN X    -7.922207    -41.138799  KCAL/ANGSTROM
     77         26  H    CARTESIAN Y    -4.094643    -27.976659  KCAL/ANGSTROM
     78         26  H    CARTESIAN Z    -5.056409    -19.361061  KCAL/ANGSTROM
     79         27  O    CARTESIAN X   -10.004890    -41.580205  KCAL/ANGSTROM
     80         27  O    CARTESIAN Y     1.765873    -35.939005  KCAL/ANGSTROM
     81         27  O    CARTESIAN Z    -5.282824     27.426553  KCAL/ANGSTROM
     82         28  H    CARTESIAN X    -9.436224     13.778916  KCAL/ANGSTROM
     83         28  H    CARTESIAN Y     1.216790      4.243726  KCAL/ANGSTROM
     84         28  H    CARTESIAN Z    -5.846987     -1.152800  KCAL/ANGSTROM
     85         29  H    CARTESIAN X    -9.640102     29.710748  KCAL/ANGSTROM
     86         29  H    CARTESIAN Y     2.734010     40.732261  KCAL/ANGSTROM
     87         29  H    CARTESIAN Z    -5.484414    -10.929400  KCAL/ANGSTROM
     88         30  O    CARTESIAN X   -12.890864      1.040804  KCAL/ANGSTROM
     89         30  O    CARTESIAN Y    -3.952537      1.355360  KCAL/ANGSTROM
     90         30  O    CARTESIAN Z    -4.704199    -20.123064  KCAL/ANGSTROM
     91         31  H    CARTESIAN X   -12.560540     -4.726466  KCAL/ANGSTROM
     92         31  H    CARTESIAN Y    -4.826457      9.745486  KCAL/ANGSTROM
     93         31  H    CARTESIAN Z    -4.576014      6.663253  KCAL/ANGSTROM
     94         32  H    CARTESIAN X   -13.419929     -4.065235  KCAL/ANGSTROM
     95         32  H    CARTESIAN Y    -3.831722    -12.469179  KCAL/ANGSTROM
     96         32  H    CARTESIAN Z    -3.869641     15.176875  KCAL/ANGSTROM
     97         33  O    CARTESIAN X   -11.167400    -20.151729  KCAL/ANGSTROM
     98         33  O    CARTESIAN Y    -2.360444     15.336286  KCAL/ANGSTROM
     99         33  O    CARTESIAN Z    -6.241347     -1.138227  KCAL/ANGSTROM
    100         34  H    CARTESIAN X   -11.486131      6.092190  KCAL/ANGSTROM
    101         34  H    CARTESIAN Y    -2.958081     -4.683794  KCAL/ANGSTROM
    102         34  H    CARTESIAN Z    -5.549232      6.827016  KCAL/ANGSTROM
    103         35  H    CARTESIAN X   -10.390110     16.125997  KCAL/ANGSTROM
    104         35  H    CARTESIAN Y    -2.730547     -1.985838  KCAL/ANGSTROM
    105         35  H    CARTESIAN Z    -6.684740     -7.943069  KCAL/ANGSTROM
    106         36  O    CARTESIAN X    -5.333640     12.371582  KCAL/ANGSTROM
    107         36  O    CARTESIAN Y     0.348240    -26.640116  KCAL/ANGSTROM
    108         36  O    CARTESIAN Z    -7.175449      1.324770  KCAL/ANGSTROM
    109         37  H    CARTESIAN X    -5.916700      8.607601  KCAL/ANGSTROM
    110         37  H    CARTESIAN Y    -0.243441     11.330364  KCAL/ANGSTROM
    111         37  H    CARTESIAN Z    -6.757821     -8.014269  KCAL/ANGSTROM
    112         38  H    CARTESIAN X    -5.637917    -11.712476  KCAL/ANGSTROM
    113         38  H    CARTESIAN Y     1.281317     23.839644  KCAL/ANGSTROM
    114         38  H    CARTESIAN Z    -7.030410      2.336375  KCAL/ANGSTROM
    115         39  O    CARTESIAN X   -12.707013    -28.436953  KCAL/ANGSTROM
    116         39  O    CARTESIAN Y    -2.114360     53.455398  KCAL/ANGSTROM
    117         39  O    CARTESIAN Z     0.935085    -14.478737  KCAL/ANGSTROM
    118         40  H    CARTESIAN X   -12.316580     18.067792  KCAL/ANGSTROM
    119         40  H    CARTESIAN Y    -3.081593    -55.074179  KCAL/ANGSTROM
    120         40  H    CARTESIAN Z     1.113265      7.951579  KCAL/ANGSTROM
    121         41  H    CARTESIAN X   -12.001918     17.641609  KCAL/ANGSTROM
    122         41  H    CARTESIAN Y    -1.484743      3.889424  KCAL/ANGSTROM
    123         41  H    CARTESIAN Z     1.190452     10.462452  KCAL/ANGSTROM
    124         42  O    CARTESIAN X   -10.332850     13.171737  KCAL/ANGSTROM
    125         42  O    CARTESIAN Y    -1.981017     27.061628  KCAL/ANGSTROM
    126         42  O    CARTESIAN Z     2.931867    -46.210909  KCAL/ANGSTROM
    127         43  H    CARTESIAN X   -11.082077     -5.316733  KCAL/ANGSTROM
    128         43  H    CARTESIAN Y    -1.653470     13.731225  KCAL/ANGSTROM
    129         43  H    CARTESIAN Z     3.483824     -8.861327  KCAL/ANGSTROM
    130         44  H    CARTESIAN X   -10.403851    -13.636425  KCAL/ANGSTROM
    131         44  H    CARTESIAN Y    -1.349937    -31.982309  KCAL/ANGSTROM
    132         44  H    CARTESIAN Z     2.313129     46.864346  KCAL/ANGSTROM
    133         45  O    CARTESIAN X    -7.164285    -28.496175  KCAL/ANGSTROM
    134         45  O    CARTESIAN Y    -1.629288     -7.802505  KCAL/ANGSTROM
    135         45  O    CARTESIAN Z    -6.563224     35.689827  KCAL/ANGSTROM
    136         46  H    CARTESIAN X    -6.704311      9.671626  KCAL/ANGSTROM
    137         46  H    CARTESIAN Y    -1.964533     -5.968492  KCAL/ANGSTROM
    138         46  H    CARTESIAN Z    -7.386166    -13.204044  KCAL/ANGSTROM
    139         47  H    CARTESIAN X    -6.920134      4.403718  KCAL/ANGSTROM
    140         47  H    CARTESIAN Y    -2.292281      4.743131  KCAL/ANGSTROM
    141         47  H    CARTESIAN Z    -5.910193    -10.103023  KCAL/ANGSTROM
    142         48  O    CARTESIAN X    -9.272579    -26.736384  KCAL/ANGSTROM
    143         48  O    CARTESIAN Y     3.790390    -19.201943  KCAL/ANGSTROM
    144         48  O    CARTESIAN Z    -1.114689     13.601741  KCAL/ANGSTROM
    145         49  H    CARTESIAN X    -9.537881     16.657777  KCAL/ANGSTROM
    146         49  H    CARTESIAN Y     4.056258     13.371238  KCAL/ANGSTROM
    147         49  H    CARTESIAN Z    -2.025322     -7.170720  KCAL/ANGSTROM
    148         50  H    CARTESIAN X    -8.375535     10.301100  KCAL/ANGSTROM
    149         50  H    CARTESIAN Y     4.180703      4.548933  KCAL/ANGSTROM
    150         50  H    CARTESIAN Z    -1.138855     -7.795554  KCAL/ANGSTROM
    151         51  O    CARTESIAN X   -12.827848    -34.006457  KCAL/ANGSTROM
    152         51  O    CARTESIAN Y    -0.380508     -3.902515  KCAL/ANGSTROM
    153         51  O    CARTESIAN Z    -6.914181     18.940377  KCAL/ANGSTROM
    154         52  H    CARTESIAN X   -12.134953     33.538956  KCAL/ANGSTROM
    155         52  H    CARTESIAN Y    -0.023754      2.080756  KCAL/ANGSTROM
    156         52  H    CARTESIAN Z    -7.611635    -17.158853  KCAL/ANGSTROM
    157         53  H    CARTESIAN X   -12.253293     16.728712  KCAL/ANGSTROM
    158         53  H    CARTESIAN Y    -1.095288      2.027950  KCAL/ANGSTROM
    159         53  H    CARTESIAN Z    -6.558256     -0.688084  KCAL/ANGSTROM
    160         54  O    CARTESIAN X    -8.824316    -10.417641  KCAL/ANGSTROM
    161         54  O    CARTESIAN Y     0.319438    -63.425007  KCAL/ANGSTROM
    162         54  O    CARTESIAN Z    -7.279706     19.671597  KCAL/ANGSTROM
    163         55  H    CARTESIAN X    -8.200204     23.748459  KCAL/ANGSTROM
    164         55  H    CARTESIAN Y     0.914179     28.045465  KCAL/ANGSTROM
    165         55  H    CARTESIAN Z    -7.852890    -21.217160  KCAL/ANGSTROM
    166         56  H    CARTESIAN X    -8.401230    -14.424177  KCAL/ANGSTROM
    167         56  H    CARTESIAN Y    -0.476495     22.551126  KCAL/ANGSTROM
    168         56  H    CARTESIAN Z    -7.098995     -8.929740  KCAL/ANGSTROM
    169         57  O    CARTESIAN X   -11.062615    -36.248719  KCAL/ANGSTROM
    170         57  O    CARTESIAN Y     0.431011     21.647257  KCAL/ANGSTROM
    171         57  O    CARTESIAN Z    -8.620386     16.150790  KCAL/ANGSTROM
    172         58  H    CARTESIAN X   -10.302842     11.521552  KCAL/ANGSTROM
    173         58  H    CARTESIAN Y     0.484565     -3.272756  KCAL/ANGSTROM
    174         58  H    CARTESIAN Z    -7.965007      3.835404  KCAL/ANGSTROM
    175         59  H    CARTESIAN X   -10.719978     20.368479  KCAL/ANGSTROM
    176         59  H    CARTESIAN Y    -0.317232    -19.757638  KCAL/ANGSTROM
    177         59  H    CARTESIAN Z    -9.208445    -11.204761  KCAL/ANGSTROM
    178         60  O    CARTESIAN X    -8.473368    -10.902343  KCAL/ANGSTROM
    179         60  O    CARTESIAN Y    -4.536035      4.385273  KCAL/ANGSTROM
    180         60  O    CARTESIAN Z    -0.324177     19.652354  KCAL/ANGSTROM
    181         61  H    CARTESIAN X    -9.091799    -31.171597  KCAL/ANGSTROM
    182         61  H    CARTESIAN Y    -4.763184     -7.715765  KCAL/ANGSTROM
    183         61  H    CARTESIAN Z    -1.080294    -21.092362  KCAL/ANGSTROM
    184         62  H    CARTESIAN X    -7.489624     41.780730  KCAL/ANGSTROM
    185         62  H    CARTESIAN Y    -4.548689      2.670009  KCAL/ANGSTROM
    186         62  H    CARTESIAN Z    -0.540129      2.145948  KCAL/ANGSTROM
    187         63  O    CARTESIAN X    -7.927027     -8.942247  KCAL/ANGSTROM
    188         63  O    CARTESIAN Y     4.671068      4.144042  KCAL/ANGSTROM
    189         63  O    CARTESIAN Z     1.129539     15.200531  KCAL/ANGSTROM
    190         64  H    CARTESIAN X    -7.610131     16.145473  KCAL/ANGSTROM
    191         64  H    CARTESIAN Y     4.514801      5.833474  KCAL/ANGSTROM
    192         64  H    CARTESIAN Z     0.239415      5.885463  KCAL/ANGSTROM
    193         65  H    CARTESIAN X    -7.159237    -11.422541  KCAL/ANGSTROM
    194         65  H    CARTESIAN Y     5.024503    -12.134741  KCAL/ANGSTROM
    195         65  H    CARTESIAN Z     1.509324    -27.423812  KCAL/ANGSTROM
    196         66  O    CARTESIAN X    -7.182678     -0.646764  KCAL/ANGSTROM
    197         66  O    CARTESIAN Y     3.199810     -7.368210  KCAL/ANGSTROM
    198         66  O    CARTESIAN Z    -2.885288     -2.175249  KCAL/ANGSTROM
    199         67  H    CARTESIAN X    -6.713038     -9.564200  KCAL/ANGSTROM
    200         67  H    CARTESIAN Y     2.677555      9.435098  KCAL/ANGSTROM
    201         67  H    CARTESIAN Z    -2.275859    -20.752922  KCAL/ANGSTROM
    202         68  H    CARTESIAN X    -6.760979     -1.293944  KCAL/ANGSTROM
    203         68  H    CARTESIAN Y     3.025975     -4.010470  KCAL/ANGSTROM
    204         68  H    CARTESIAN Z    -3.705153     19.375045  KCAL/ANGSTROM
    205         69  O    CARTESIAN X   -12.386264    -29.374663  KCAL/ANGSTROM
    206         69  O    CARTESIAN Y     0.693482     -7.957907  KCAL/ANGSTROM
    207         69  O    CARTESIAN Z    -4.495641     20.582622  KCAL/ANGSTROM
    208         70  H    CARTESIAN X   -11.452873     23.643727  KCAL/ANGSTROM
    209         70  H    CARTESIAN Y     0.995933      3.079683  KCAL/ANGSTROM
    210         70  H    CARTESIAN Z    -4.667684     -9.720034  KCAL/ANGSTROM
    211         71  H    CARTESIAN X   -12.660133      2.542812  KCAL/ANGSTROM
    212         71  H    CARTESIAN Y     0.403016     -0.795049  KCAL/ANGSTROM
    213         71  H    CARTESIAN Z    -5.389881    -11.010762  KCAL/ANGSTROM
    214         72  H    CARTESIAN X   -11.349244      1.667592  KCAL/ANGSTROM
    215         72  H    CARTESIAN Y     1.539661     -6.209873  KCAL/ANGSTROM
    216         72  H    CARTESIAN Z     0.302040     -0.230955  KCAL/ANGSTROM
    217         73  H    CARTESIAN X    -7.310894    -16.517624  KCAL/ANGSTROM
    218         73  H    CARTESIAN Y     0.733653     -1.701661  KCAL/ANGSTROM
    219         73  H    CARTESIAN Z     0.287172     -1.997322  KCAL/ANGSTROM




   ATOM   CHEMICAL          X               Y               Z
  NUMBER   SYMBOL      (ANGSTROMS)     (ANGSTROMS)     (ANGSTROMS)
 
     1       C        -10.60756300  *   0.82640200  *   0.66158300  *
     2       O        -10.98797600  *  -0.10435700  *   1.36546300  *
     3       N         -9.33574700  *   0.99529600  *   0.23052200  *
     4       H         -9.02378500  *   1.79338200  *  -0.33141900  *
     5       C         -8.17327600  *   0.12096900  *   0.54988300  *
     6       H         -8.19416300  *  -0.16794100  *   1.63839100  *
     7       C         -8.16557700  *  -1.22855500  *  -0.25185200  *
     8       H         -7.17743800  *  -1.69402800  *  -0.18052500  *
     9       H         -8.75960900  *  -1.97587100  *   0.24357300  *
    10       C         -8.65537100  *  -1.11773500  *  -1.67401100  *
    11       C         -9.89866000  *  -1.66889000  *  -1.99958600  *
    12       H        -10.46272400  *  -2.23745200  *  -1.26983500  *
    13       C        -10.29868700  *  -1.58460300  *  -3.33405300  *
    14       H        -11.31545700  *  -1.85447500  *  -3.68360500  *
    15       C         -9.53754700  *  -0.96056600  *  -4.34437500  *
    16       H         -9.80240800  *  -0.87879000  *  -5.42367100  *
    17       C         -7.91453800  *  -0.46098500  *  -2.64452000  *
    18       H         -6.92033400  *   0.03462800  *  -2.53538000  *
    19       C         -8.35448300  *  -0.36014400  *  -3.97193900  *
    20       H         -7.72638600  *   0.08208800  *  -4.78535800  *
    21       O         -9.50796200  *   1.91951900  *  -2.70615400  *
    22       H         -9.50861300  *   1.70789500  *  -3.68695600  *
    23       H         -8.62190300  *   2.29276200  *  -2.57870600  *
    24       O         -7.15627200  *  -3.45496500  *  -4.69331600  *
    25       H         -7.66793900  *  -2.74485500  *  -4.32773500  *
    26       H         -7.92220700  *  -4.09464300  *  -5.05640900  *
    27       O        -10.00489000  *   1.76587300  *  -5.28282400  *
    28       H         -9.43622400  *   1.21679000  *  -5.84698700  *
    29       H         -9.64010200  *   2.73401000  *  -5.48441400  *
    30       O        -12.89086400  *  -3.95253700  *  -4.70419900  *
    31       H        -12.56054000  *  -4.82645700  *  -4.57601400  *
    32       H        -13.41992900  *  -3.83172200  *  -3.86964100  *
    33       O        -11.16740000  *  -2.36044400  *  -6.24134700  *
    34       H        -11.48613100  *  -2.95808100  *  -5.54923200  *
    35       H        -10.39011000  *  -2.73054700  *  -6.68474000  *
    36       O         -5.33364000  *   0.34824000  *  -7.17544900  *
    37       H         -5.91670000  *  -0.24344100  *  -6.75782100  *
    38       H         -5.63791700  *   1.28131700  *  -7.03041000  *
    39       O        -12.70701300  *  -2.11436000  *   0.93508500  *
    40       H        -12.31658000  *  -3.08159300  *   1.11326500  *
    41       H        -12.00191800  *  -1.48474300  *   1.19045200  *
    42       O        -10.33285000  *  -1.98101700  *   2.93186700  *
    43       H        -11.08207700  *  -1.65347000  *   3.48382400  *
    44       H        -10.40385100  *  -1.34993700  *   2.31312900  *
    45       O         -7.16428500  *  -1.62928800  *  -6.56322400  *
    46       H         -6.70431100  *  -1.96453300  *  -7.38616600  *
    47       H         -6.92013400  *  -2.29228100  *  -5.91019300  *
    48       O         -9.27257900  *   3.79039000  *  -1.11468900  *
    49       H         -9.53788100  *   4.05625800  *  -2.02532200  *
    50       H         -8.37553500  *   4.18070300  *  -1.13885500  *
    51       O        -12.82784800  *  -0.38050800  *  -6.91418100  *
    52       H        -12.13495300  *  -0.02375400  *  -7.61163500  *
    53       H        -12.25329300  *  -1.09528800  *  -6.55825600  *
    54       O         -8.82431600  *   0.31943800  *  -7.27970600  *
    55       H         -8.20020400  *   0.91417900  *  -7.85289000  *
    56       H         -8.40123000  *  -0.47649500  *  -7.09899500  *
    57       O        -11.06261500  *   0.43101100  *  -8.62038600  *
    58       H        -10.30284200  *   0.48456500  *  -7.96500700  *
    59       H        -10.71997800  *  -0.31723200  *  -9.20844500  *
    60       O         -8.47336800  *  -4.53603500  *  -0.32417700  *
    61       H         -9.09179900  *  -4.76318400  *  -1.08029400  *
    62       H         -7.48962400  *  -4.54868900  *  -0.54012900  *
    63       O         -7.92702700  *   4.67106800  *   1.12953900  *
    64       H         -7.61013100  *   4.51480100  *   0.23941500  *
    65       H         -7.15923700  *   5.02450300  *   1.50932400  *
    66       O         -7.18267800  *   3.19981000  *  -2.88528800  *
    67       H         -6.71303800  *   2.67755500  *  -2.27585900  *
    68       H         -6.76097900  *   3.02597500  *  -3.70515300  *
    69       O        -12.38626400  *   0.69348200  *  -4.49564100  *
    70       H        -11.45287300  *   0.99593300  *  -4.66768400  *
    71       H        -12.66013300  *   0.40301600  *  -5.38988100  *
    72       H        -11.34924400  *   1.53966100  *   0.30204000  *
    73       H         -7.31089400  *   0.73365300  *   0.28717200  *

                             CARTESIAN COORDINATES

   1    C      -10.607563000     0.826402000     0.661583000
   2    O      -10.987976000    -0.104357000     1.365463000
   3    N       -9.335747000     0.995296000     0.230522000
   4    H       -9.023785000     1.793382000    -0.331419000
   5    C       -8.173276000     0.120969000     0.549883000
   6    H       -8.194163000    -0.167941000     1.638391000
   7    C       -8.165577000    -1.228555000    -0.251852000
   8    H       -7.177438000    -1.694028000    -0.180525000
   9    H       -8.759609000    -1.975871000     0.243573000
  10    C       -8.655371000    -1.117735000    -1.674011000
  11    C       -9.898660000    -1.668890000    -1.999586000
  12    H      -10.462724000    -2.237452000    -1.269835000
  13    C      -10.298687000    -1.584603000    -3.334053000
  14    H      -11.315457000    -1.854475000    -3.683605000
  15    C       -9.537547000    -0.960566000    -4.344375000
  16    H       -9.802408000    -0.878790000    -5.423671000
  17    C       -7.914538000    -0.460985000    -2.644520000
  18    H       -6.920334000     0.034628000    -2.535380000
  19    C       -8.354483000    -0.360144000    -3.971939000
  20    H       -7.726386000     0.082088000    -4.785358000
  21    O       -9.507962000     1.919519000    -2.706154000
  22    H       -9.508613000     1.707895000    -3.686956000
  23    H       -8.621903000     2.292762000    -2.578706000
  24    O       -7.156272000    -3.454965000    -4.693316000
  25    H       -7.667939000    -2.744855000    -4.327735000
  26    H       -7.922207000    -4.094643000    -5.056409000
  27    O      -10.004890000     1.765873000    -5.282824000
  28    H       -9.436224000     1.216790000    -5.846987000
  29    H       -9.640102000     2.734010000    -5.484414000
  30    O      -12.890864000    -3.952537000    -4.704199000
  31    H      -12.560540000    -4.826457000    -4.576014000
  32    H      -13.419929000    -3.831722000    -3.869641000
  33    O      -11.167400000    -2.360444000    -6.241347000
  34    H      -11.486131000    -2.958081000    -5.549232000
  35    H      -10.390110000    -2.730547000    -6.684740000
  36    O       -5.333640000     0.348240000    -7.175449000
  37    H       -5.916700000    -0.243441000    -6.757821000
  38    H       -5.637917000     1.281317000    -7.030410000
  39    O      -12.707013000    -2.114360000     0.935085000
  40    H      -12.316580000    -3.081593000     1.113265000
  41    H      -12.001918000    -1.484743000     1.190452000
  42    O      -10.332850000    -1.981017000     2.931867000
  43    H      -11.082077000    -1.653470000     3.483824000
  44    H      -10.403851000    -1.349937000     2.313129000
  45    O       -7.164285000    -1.629288000    -6.563224000
  46    H       -6.704311000    -1.964533000    -7.386166000
  47    H       -6.920134000    -2.292281000    -5.910193000
  48    O       -9.272579000     3.790390000    -1.114689000
  49    H       -9.537881000     4.056258000    -2.025322000
  50    H       -8.375535000     4.180703000    -1.138855000
  51    O      -12.827848000    -0.380508000    -6.914181000
  52    H      -12.134953000    -0.023754000    -7.611635000
  53    H      -12.253293000    -1.095288000    -6.558256000
  54    O       -8.824316000     0.319438000    -7.279706000
  55    H       -8.200204000     0.914179000    -7.852890000
  56    H       -8.401230000    -0.476495000    -7.098995000
  57    O      -11.062615000     0.431011000    -8.620386000
  58    H      -10.302842000     0.484565000    -7.965007000
  59    H      -10.719978000    -0.317232000    -9.208445000
  60    O       -8.473368000    -4.536035000    -0.324177000
  61    H       -9.091799000    -4.763184000    -1.080294000
  62    H       -7.489624000    -4.548689000    -0.540129000
  63    O       -7.927027000     4.671068000     1.129539000
  64    H       -7.610131000     4.514801000     0.239415000
  65    H       -7.159237000     5.024503000     1.509324000
  66    O       -7.182678000     3.199810000    -2.885288000
  67    H       -6.713038000     2.677555000    -2.275859000
  68    H       -6.760979000     3.025975000    -3.705153000
  69    O      -12.386264000     0.693482000    -4.495641000
  70    H      -11.452873000     0.995933000    -4.667684000
  71    H      -12.660133000     0.403016000    -5.389881000
  72    H      -11.349244000     1.539661000     0.302040000
  73    H       -7.310894000     0.733653000     0.287172000


           Empirical Formula: C9 H45 N O18  =    73 atoms



      MOLECULAR POINT GROUP   :   C1  


                EIGENVECTORS  


   Root No.      89        90        91        92        93        94        95        96

                89 A      90 A      91 A      92 A      93 A      94 A      95 A      96 A   

                -9.954    -9.821    -9.700    -9.648    -9.538    -9.271    -8.351    -8.071
  
  S   C    1    0.0379   -0.0195    0.0006   -0.0203   -0.0147    0.0334    0.0087   -0.0021
  Px  C    1    0.0334   -0.0039    0.0008   -0.0024    0.0059   -0.1098    0.0272   -0.0063
  Py  C    1    0.0429   -0.0213    0.0004   -0.0248   -0.0224    0.0785    0.0954   -0.0184
  Pz  C    1   -0.0126    0.0140   -0.0064    0.0112    0.0139   -0.0284    0.1321   -0.0256
  S   O    2    0.0190   -0.0078    0.0022   -0.0083   -0.0084    0.0069   -0.0000   -0.0001
  Px  O    2    0.1571   -0.1507    0.0060   -0.1398   -0.1013    0.7047   -0.0707    0.0128
  Py  O    2   -0.0489    0.1250    0.0002    0.0778    0.0516   -0.3067   -0.2743    0.0464
  Pz  O    2    0.1131    0.0461    0.0114   -0.0205   -0.0499    0.0693   -0.3826    0.0681
  S   N    3   -0.0309    0.0443   -0.0006    0.0246    0.0260   -0.0630   -0.0082    0.0012
  Px  N    3    0.0063   -0.0375   -0.0031   -0.0362   -0.0320    0.2454    0.1592   -0.0223
  Py  N    3   -0.0971   -0.0693   -0.0134    0.0112    0.0790    0.0076    0.3555   -0.0599
  Pz  N    3   -0.0334   -0.0600   -0.0130   -0.0094   -0.0003   -0.0895    0.5889   -0.0942
  S   H    4   -0.0504   -0.0213   -0.0037    0.0091    0.0014    0.0723   -0.0092   -0.0010
  S   C    5    0.0029    0.0015   -0.0014    0.0056   -0.0061    0.0005   -0.0341   -0.0083
  Px  C    5    0.1064   -0.0144    0.0046   -0.0275    0.0480   -0.2052   -0.0385    0.0133
  Py  C    5    0.1612   -0.0917    0.0084   -0.0902   -0.0133   -0.0536   -0.0527    0.0476
  Pz  C    5   -0.2495   -0.0542   -0.0140    0.0658    0.0319    0.0497   -0.1493    0.0552
  S   H    6   -0.2145   -0.0244   -0.0073    0.0679    0.0211    0.0649   -0.1482    0.0338
  S   C    7   -0.0480   -0.0352   -0.0034   -0.0056    0.0095   -0.0013    0.0764   -0.0102
  Px  C    7   -0.1725    0.1838   -0.0012    0.1006   -0.0502    0.1752    0.0171    0.0157
  Py  C    7   -0.1827    0.0514   -0.0045    0.1071    0.0049    0.0623    0.1704   -0.0634
  Pz  C    7    0.3428    0.1364    0.0040   -0.1007   -0.0238   -0.0449    0.1162   -0.0382
  S   H    8   -0.0706    0.1010   -0.0002    0.0331   -0.0336    0.1045    0.0047    0.0308
  S   H    9    0.2782   -0.0856    0.0045   -0.1249    0.0161   -0.1254   -0.0114    0.0067
  S   C   10   -0.0488    0.0047   -0.0015    0.0193    0.0040    0.0041   -0.0128   -0.0063
  Px  C   10   -0.0044   -0.2419   -0.0020   -0.0361    0.0269   -0.0428   -0.1288   -0.0395
  Py  C   10    0.0946   -0.1666    0.0006   -0.0490    0.0450   -0.0497    0.1689    0.1069
  Pz  C   10   -0.2934   -0.1107   -0.0057    0.0777    0.0372    0.0061   -0.0033    0.0437
  S   C   11   -0.0140    0.0111   -0.0006    0.0052   -0.0018    0.0184    0.0167    0.0246
  Px  C   11   -0.0104    0.2895    0.0019    0.0529   -0.0659    0.0539   -0.0258   -0.2842
  Py  C   11   -0.0412    0.0910    0.0007    0.0252    0.0264    0.0250    0.1240    0.4636
  Pz  C   11    0.1348    0.1163    0.0008   -0.0235   -0.0135    0.0237    0.0580    0.1135
  S   H   12    0.1046   -0.0998   -0.0002   -0.0461    0.0104   -0.0153    0.0025    0.0143
  S   C   13   -0.0040    0.0025    0.0000    0.0031   -0.0001   -0.0049   -0.0040   -0.0187
  Px  C   13    0.0116   -0.2884   -0.0018   -0.0408    0.0251   -0.0465   -0.0053   -0.1462
  Py  C   13    0.0347   -0.1191    0.0004   -0.0270    0.0526    0.0042   -0.0516    0.4062
  Pz  C   13   -0.1590   -0.1042   -0.0015    0.0283    0.0306   -0.0096   -0.0300    0.1029
  S   H   14    0.0194    0.2714    0.0017    0.0325   -0.0386    0.0357    0.0215   -0.0121
  S   C   15   -0.0171   -0.0307   -0.0005   -0.0004    0.0064   -0.0013   -0.0021    0.0108
  Px  C   15    0.0110    0.2883    0.0008    0.0364   -0.0461    0.0202    0.1113    0.0285
  Py  C   15   -0.0399    0.1027    0.0014    0.0255    0.0009    0.0333   -0.1688   -0.1244
  Pz  C   15    0.1656    0.0873    0.0016   -0.0305   -0.0112    0.0056   -0.0279   -0.0145
  S   H   16   -0.1437   -0.1511   -0.0017    0.0166    0.0241   -0.0090   -0.0164    0.0072
  S   C   17    0.0457    0.0008    0.0007   -0.0187    0.0034   -0.0139    0.0025   -0.0044
  Px  C   17   -0.0054    0.2753    0.0005    0.0416   -0.0362    0.0478   -0.0156    0.1629
  Py  C   17   -0.0695    0.0432   -0.0001    0.0331   -0.0082    0.0139    0.0505   -0.3230
  Pz  C   17    0.2697    0.0644    0.0034   -0.0707   -0.0183   -0.0315    0.0290   -0.0838
  S   H   18    0.0360    0.2323    0.0014    0.0224   -0.0328    0.0291    0.0144   -0.0101
  S   C   19   -0.0150   -0.0125   -0.0003    0.0047    0.0054    0.0018   -0.0086   -0.0249
  Px  C   19   -0.0080   -0.2301   -0.0016   -0.0294    0.0361   -0.0297    0.0584    0.2611
  Py  C   19    0.0359   -0.1785    0.0006   -0.0305    0.0134   -0.0160   -0.1348   -0.4403
  Pz  C   19   -0.2388   -0.1252   -0.0030    0.0499    0.0251    0.0094   -0.0438   -0.0891
  S   H   20    0.1454   -0.1076    0.0011   -0.0541    0.0100   -0.0265    0.0026    0.0133
  S   O   21   -0.0007   -0.0010    0.0001    0.0000    0.0078   -0.0038    0.0026   -0.0023
  Px  O   21    0.0003    0.0705   -0.0017    0.0030   -0.0360   -0.0011    0.0130    0.0682
  Py  O   21    0.0362   -0.1058    0.0072   -0.0139    0.3427    0.0425   -0.0252   -0.0921
  Pz  O   21   -0.0113    0.0152   -0.0009    0.0020   -0.0255   -0.0125   -0.0092   -0.0398
  S   H   22   -0.0019   -0.0027   -0.0004    0.0007   -0.0331    0.0005   -0.0023    0.0056
  S   H   23    0.0027    0.0042    0.0002   -0.0005    0.0120    0.0021   -0.0025    0.0008
  S   O   24   -0.0001    0.0001   -0.0000    0.0000   -0.0000    0.0000   -0.0014   -0.0041
  Px  O   24    0.0013    0.0060   -0.0001    0.0005   -0.0019   -0.0009    0.0115    0.0214
  Py  O   24   -0.0025   -0.0049    0.0001    0.0001    0.0013    0.0008   -0.0106   -0.0250
  Pz  O   24    0.0015   -0.0049    0.0000   -0.0009    0.0009   -0.0004   -0.0026   -0.0080
  S   H   25   -0.0000    0.0003   -0.0000    0.0001   -0.0001   -0.0001    0.0030    0.0077
  S   H   26    0.0002    0.0004   -0.0000   -0.0000   -0.0001   -0.0000    0.0014    0.0040
  S   O   27    0.0028    0.0009    0.0001   -0.0007    0.0051   -0.0005    0.0040    0.0037
  Px  O   27   -0.0171    0.0227   -0.0000    0.0053    0.0287    0.0000    0.0154    0.0262
  Py  O   27   -0.0038   -0.0086   -0.0001   -0.0001   -0.0053   -0.0004   -0.0096   -0.0126
  Pz  O   27   -0.0136    0.0031    0.0002    0.0014    0.0432   -0.0028    0.0086    0.0107
  S   H   28   -0.0002    0.0018   -0.0000    0.0004   -0.0029    0.0005   -0.0006    0.0000
  S   H   29   -0.0041   -0.0031   -0.0000    0.0006   -0.0017    0.0004   -0.0063   -0.0073
  S   O   30    0.0011   -0.0016   -0.0000   -0.0005    0.0003   -0.0003   -0.0003    0.0004
  Px  O   30    0.0018   -0.0169   -0.0001   -0.0025    0.0022   -0.0018   -0.0010    0.0017
  Py  O   30    0.0010   -0.0097   -0.0000   -0.0015    0.0013   -0.0011   -0.0006    0.0004
  Pz  O   30   -0.0012   -0.0176   -0.0001   -0.0020    0.0024   -0.0018   -0.0010    0.0017
  S   H   31   -0.0005    0.0023    0.0000    0.0004   -0.0004    0.0004    0.0003   -0.0004
  S   H   32   -0.0011   -0.0007   -0.0000    0.0002    0.0001    0.0000    0.0001   -0.0003
  S   O   33    0.0075    0.0059    0.0001   -0.0012   -0.0008    0.0000   -0.0000    0.0004
  Px  O   33    0.0455    0.0460    0.0005   -0.0042   -0.0050    0.0027   -0.0028   -0.0014
  Py  O   33    0.0347    0.0451    0.0004   -0.0018   -0.0063    0.0026    0.0032   -0.0047
  Pz  O   33    0.0382    0.0196    0.0003   -0.0058   -0.0008   -0.0004   -0.0043    0.0046
  S   H   34   -0.0066   -0.0081   -0.0001    0.0006    0.0011   -0.0004   -0.0001   -0.0005
  S   H   35   -0.0012    0.0027    0.0000    0.0007   -0.0004    0.0005    0.0004   -0.0008
  S   O   36    0.0003   -0.0002    0.0000   -0.0001    0.0000    0.0000   -0.0001   -0.0003
  Px  O   36    0.0023   -0.0037    0.0000   -0.0012    0.0003   -0.0008    0.0008    0.0020
  Py  O   36   -0.0004    0.0000   -0.0000    0.0000    0.0000   -0.0001    0.0004    0.0010
  Pz  O   36   -0.0031    0.0025   -0.0000    0.0012   -0.0002    0.0006   -0.0004   -0.0012
  S   H   37   -0.0005    0.0003   -0.0000    0.0001   -0.0000    0.0000    0.0001    0.0004
  S   H   38   -0.0002    0.0000   -0.0000    0.0000    0.0000   -0.0000    0.0001    0.0003
  S   O   39   -0.0005   -0.0015   -0.0087    0.0012    0.0006   -0.0023   -0.0011    0.0003
  Px  O   39   -0.0029    0.0200    0.0513   -0.0069   -0.0087    0.0472   -0.0622    0.0077
  Py  O   39    0.0111   -0.0012   -0.0024   -0.0038   -0.0032    0.0241   -0.0310    0.0048
  Pz  O   39    0.0308   -0.0239    0.0456   -0.0169   -0.0014    0.0195   -0.0163    0.0039
  S   H   40   -0.0019    0.0011    0.0037    0.0004    0.0004   -0.0034    0.0046   -0.0007
  S   H   41    0.0010    0.0011    0.0050   -0.0008   -0.0006    0.0018    0.0051   -0.0012
  S   O   42    0.0151   -0.0099    0.0025   -0.0086   -0.0076    0.0273   -0.0018    0.0002
  Px  O   42   -0.0257   -0.0011    0.6274   -0.0978   -0.0160    0.0352    0.0033   -0.0003
  Py  O   42   -0.0978    0.0517    0.5616   -0.0401    0.0270   -0.1484    0.0263   -0.0050
  Pz  O   42   -0.0033   -0.0191    0.5113   -0.0951   -0.0224    0.0860    0.0014    0.0005
  S   H   43   -0.0025    0.0007   -0.0006    0.0007    0.0019   -0.0041   -0.0002    0.0002
  S   H   44   -0.0127    0.0089   -0.0010    0.0073    0.0054   -0.0195    0.0015   -0.0002
  S   O   45   -0.0046    0.0039   -0.0000    0.0018   -0.0002    0.0011   -0.0020   -0.0050
  Px  O   45   -0.0139    0.0006   -0.0001    0.0031   -0.0002    0.0005    0.0006   -0.0011
  Py  O   45   -0.0143    0.0061   -0.0001    0.0040   -0.0005    0.0013    0.0017    0.0028
  Pz  O   45   -0.0102    0.0025   -0.0001    0.0029   -0.0002    0.0013   -0.0035   -0.0088
  S   H   46    0.0057   -0.0033    0.0000   -0.0020    0.0002   -0.0012    0.0030    0.0071
  S   H   47    0.0008   -0.0016    0.0000   -0.0005    0.0001   -0.0003    0.0006    0.0018
  S   O   48    0.0075    0.0042    0.0006   -0.0007    0.0111   -0.0085   -0.0002    0.0005
  Px  O   48   -0.0252   -0.0661   -0.0030    0.0066   -0.3243   -0.0542    0.0037    0.0054
  Py  O   48    0.0460    0.1464    0.0063   -0.0147    0.7558    0.1433   -0.0100   -0.0140
  Pz  O   48    0.0346    0.0573    0.0043   -0.0089    0.3708    0.0544   -0.0084   -0.0159
  S   H   49   -0.0064   -0.0024   -0.0006    0.0009   -0.0170    0.0046    0.0011    0.0005
  S   H   50   -0.0027   -0.0029   -0.0001   -0.0001    0.0047    0.0062   -0.0005   -0.0020
  S   O   51   -0.0005   -0.0005   -0.0000    0.0000    0.0000   -0.0001    0.0001   -0.0001
  Px  O   51    0.0064    0.0035    0.0001   -0.0011   -0.0001   -0.0001    0.0000    0.0003
  Py  O   51   -0.0049   -0.0023   -0.0000    0.0009    0.0001   -0.0000    0.0009   -0.0010
  Pz  O   51    0.0011   -0.0016    0.0000   -0.0005    0.0001   -0.0004    0.0003   -0.0004
  S   H   52    0.0002    0.0003    0.0000    0.0000   -0.0001    0.0000   -0.0000    0.0001
  S   H   53    0.0003    0.0002    0.0000   -0.0000   -0.0000    0.0000    0.0001   -0.0001
  S   O   54    0.0044    0.0057    0.0001   -0.0003   -0.0001    0.0004    0.0007   -0.0004
  Px  O   54   -0.0098    0.0063   -0.0001    0.0033   -0.0005    0.0017   -0.0012   -0.0025
  Py  O   54   -0.0056   -0.0044   -0.0001    0.0007    0.0019   -0.0006    0.0013    0.0032
  Pz  O   54   -0.0013    0.0155    0.0000    0.0023    0.0001    0.0018    0.0013    0.0003
  S   H   55   -0.0063   -0.0076   -0.0001    0.0005    0.0007   -0.0006   -0.0008    0.0004
  S   H   56   -0.0007   -0.0002   -0.0000    0.0002   -0.0005   -0.0000    0.0000    0.0007
  S   O   57   -0.0000    0.0001    0.0000    0.0000    0.0000    0.0000    0.0001   -0.0001
  Px  O   57    0.0001    0.0060    0.0000    0.0007    0.0000    0.0007    0.0003   -0.0003
  Py  O   57   -0.0006   -0.0011   -0.0000    0.0000    0.0001   -0.0001   -0.0001    0.0001
  Pz  O   57    0.0006    0.0037    0.0000    0.0003    0.0001    0.0004    0.0003   -0.0003
  S   H   58    0.0003   -0.0005    0.0000   -0.0002   -0.0001   -0.0001   -0.0001    0.0001
  S   H   59   -0.0000   -0.0002   -0.0000   -0.0000   -0.0000   -0.0000   -0.0000    0.0000
  S   O   60   -0.0136    0.0041   -0.0005    0.0034   -0.0008    0.0040    0.0008   -0.0004
  Px  O   60   -0.0063    0.0019   -0.0064   -0.0408    0.0011   -0.0066    0.0005   -0.0024
  Py  O   60    0.3072   -0.1548    0.1480    0.8835    0.0037    0.0694    0.0179    0.0041
  Pz  O   60   -0.0985    0.0465   -0.0400   -0.2313   -0.0037   -0.0125   -0.0086   -0.0095
  S   H   61    0.0079   -0.0018    0.0003   -0.0022    0.0004   -0.0023   -0.0006    0.0006
  S   H   62    0.0082   -0.0032    0.0002   -0.0023    0.0006   -0.0028   -0.0004   -0.0005
  S   O   63   -0.0000   -0.0003   -0.0000    0.0000   -0.0025   -0.0008   -0.0001    0.0002
  Px  O   63   -0.0000    0.0018    0.0000    0.0004   -0.0002   -0.0006   -0.0002    0.0003
  Py  O   63   -0.0009   -0.0049   -0.0002   -0.0004   -0.0098   -0.0005    0.0005   -0.0001
  Pz  O   63    0.0012    0.0029    0.0002   -0.0006    0.0239    0.0056   -0.0001   -0.0013
  S   H   64   -0.0001   -0.0000   -0.0000    0.0001   -0.0012   -0.0003    0.0001   -0.0001
  S   H   65    0.0002    0.0008    0.0000   -0.0002    0.0065    0.0016    0.0001   -0.0003
  S   O   66    0.0012    0.0029    0.0001   -0.0000    0.0049   -0.0000    0.0004    0.0002
  Px  O   66    0.0013   -0.0011    0.0001   -0.0000    0.0026    0.0025   -0.0018    0.0007
  Py  O   66    0.0107    0.0167    0.0004   -0.0002    0.0032    0.0025   -0.0017   -0.0058
  Pz  O   66    0.0021    0.0005    0.0001   -0.0004    0.0098    0.0012   -0.0005   -0.0006
  S   H   67   -0.0006   -0.0023   -0.0000   -0.0001   -0.0019   -0.0002   -0.0001   -0.0002
  S   H   68   -0.0010   -0.0022   -0.0001    0.0001   -0.0074   -0.0005   -0.0002   -0.0002
  S   O   69   -0.0013   -0.0045   -0.0000   -0.0002    0.0000   -0.0004    0.0001   -0.0010
  Px  O   69    0.0056   -0.0058   -0.0002   -0.0017    0.0027   -0.0033    0.0129   -0.0006
  Py  O   69   -0.0033    0.0584    0.0005    0.0064    0.0001    0.0068   -0.0027    0.0105
  Pz  O   69   -0.0040   -0.0212   -0.0001   -0.0012   -0.0011   -0.0012   -0.0040   -0.0045
  S   H   70    0.0012    0.0033    0.0000    0.0001    0.0001    0.0001   -0.0000   -0.0002
  S   H   71    0.0009    0.0018    0.0000    0.0000   -0.0002    0.0003   -0.0007    0.0013
  S   H   72    0.0609   -0.0543    0.0035   -0.0564   -0.0572    0.2812    0.0133   -0.0008
  S   H   73    0.1794   -0.0363    0.0081   -0.0652    0.0123   -0.1533   -0.0434    0.0140


   Root No.      97        98        99       100       101       102       103       104

                97 A      98 A      99 A     100 A     101 A     102 A     103 A     104 A   

                -7.791     1.882     1.938     2.427     3.361     3.775     4.091     4.214
  
  S   C    1   -0.0025   -0.0030    0.0010    0.0691    0.0078   -0.3772    0.0034   -0.0392
  Px  C    1   -0.0138   -0.0042   -0.0060    0.1647    0.0076   -0.3113    0.0024   -0.0266
  Py  C    1   -0.0339   -0.0051   -0.0320    0.4306   -0.0020   -0.0087   -0.0011    0.0126
  Pz  C    1   -0.0505   -0.0038   -0.0493    0.6253   -0.0052    0.1839   -0.0028    0.0279
  S   O    2    0.0000   -0.0005    0.0007   -0.0082   -0.0001   -0.0050   -0.0001    0.0018
  Px  O    2    0.0213    0.0019    0.0038   -0.0897   -0.0035    0.1334   -0.0011    0.0129
  Py  O    2    0.0683    0.0022    0.0188   -0.2415    0.0002    0.0089    0.0001    0.0003
  Pz  O    2    0.1069    0.0041    0.0267   -0.3213    0.0031   -0.0883    0.0016   -0.0177
  S   N    3    0.0018    0.0044   -0.0078   -0.0354   -0.0110    0.4311   -0.0035    0.0375
  Px  N    3   -0.0324    0.0036    0.0017   -0.0625    0.0013   -0.0659    0.0015   -0.0196
  Py  N    3   -0.1148    0.0034    0.0159   -0.2135    0.0018   -0.1536    0.0021   -0.0196
  Pz  N    3   -0.1493    0.0070    0.0198   -0.3668    0.0017    0.0763    0.0014   -0.0139
  S   H    4   -0.0073   -0.0011   -0.0004    0.0259    0.0101   -0.3124    0.0034   -0.0377
  S   C    5   -0.0415    0.0135   -0.0454    0.0325    0.0046   -0.1580    0.0064   -0.0696
  Px  C    5    0.0136    0.0043    0.0007   -0.0348   -0.0100    0.4336   -0.0040    0.0408
  Py  C    5    0.1237   -0.0249    0.0864   -0.0101    0.0032   -0.2672   -0.0074    0.0829
  Pz  C    5    0.1434   -0.0169    0.0568   -0.0253   -0.0036    0.0950   -0.0070    0.0771
  S   H    6    0.0765   -0.0074    0.0074    0.0601   -0.0002   -0.0273   -0.0003    0.0051
  S   C    7   -0.0211   -0.0069    0.0217   -0.0484    0.0000   -0.0240   -0.0023    0.0341
  Px  C    7    0.0904   -0.0040    0.0083    0.0049   -0.0000    0.0029   -0.0006   -0.0080
  Py  C    7   -0.1571   -0.0024    0.0188   -0.0891   -0.0000   -0.0294   -0.0050    0.0647
  Pz  C    7   -0.0677    0.0057    0.0069   -0.0501   -0.0017    0.0209   -0.0041    0.0204
  S   H    8    0.1186   -0.0163    0.0635    0.0203    0.0002   -0.0743   -0.0026    0.0471
  S   H    9    0.0088   -0.0059    0.0101   -0.0022   -0.0014    0.0079   -0.0027    0.0175
  S   C   10    0.0042    0.0107   -0.0163   -0.0046   -0.0087    0.0353    0.0008   -0.0264
  Px  C   10   -0.2260    0.0646   -0.2477   -0.0220    0.0040    0.0216    0.0068   -0.1684
  Py  C   10    0.4178   -0.1475    0.4592    0.0322   -0.0140   -0.0146   -0.0361    0.3653
  Pz  C   10    0.1172   -0.0385    0.1253    0.0028    0.0022    0.0507   -0.0077    0.1020
  S   C   11   -0.0027    0.0023   -0.0029   -0.0030   -0.0069   -0.0047   -0.0058    0.0145
  Px  C   11   -0.0589   -0.2629    0.0451   -0.0076   -0.0018   -0.0192   -0.0250    0.2074
  Py  C   11    0.1380    0.4723   -0.0465    0.0076    0.0096    0.0252    0.0346   -0.3296
  Pz  C   11    0.0471    0.1430    0.0029    0.0024    0.0127    0.0137    0.0138   -0.1053
  S   H   12   -0.0084   -0.0052   -0.0041    0.0013    0.0028   -0.0063   -0.0028    0.0067
  S   C   13    0.0155    0.0259    0.0381    0.0035   -0.0031    0.0108    0.0143   -0.0491
  Px  C   13    0.1094    0.1397    0.1850    0.0169    0.0173    0.0189   -0.0049   -0.1373
  Py  C   13   -0.3161   -0.3315   -0.4016   -0.0374    0.0028   -0.0388   -0.0441    0.3363
  Pz  C   13   -0.0650   -0.0693   -0.1014   -0.0095    0.0044    0.0007   -0.0108    0.0842
  S   H   14    0.0075   -0.0251   -0.0328   -0.0040    0.0123   -0.0070   -0.0177    0.0557
  S   C   15   -0.0014    0.0025   -0.0258   -0.0023   -0.0520   -0.0003    0.0009    0.0181
  Px  C   15    0.2582    0.1111   -0.2547   -0.0199    0.0234   -0.0216   -0.0345    0.1746
  Py  C   15   -0.4155   -0.1819    0.4649    0.0357   -0.0067    0.0416    0.0415   -0.3029
  Pz  C   15   -0.0896   -0.0413    0.0829    0.0065    0.0651    0.0108   -0.0031   -0.0485
  S   H   16   -0.0148   -0.0080    0.0101    0.0006    0.0407    0.0047   -0.0073   -0.0045
  S   C   17    0.0000    0.0034    0.0108    0.0005   -0.0014    0.0020    0.0021    0.0019
  Px  C   17   -0.2077    0.1777    0.1770    0.0116   -0.0052   -0.0116   -0.0206    0.1800
  Py  C   17    0.3871   -0.3377   -0.3513   -0.0252    0.0041    0.0306    0.0266   -0.3402
  Pz  C   17    0.1036   -0.0925   -0.0900   -0.0067    0.0063    0.0147    0.0033   -0.0799
  S   H   18   -0.0006    0.0029   -0.0001    0.0011    0.0050   -0.0060    0.0055   -0.0084
  S   C   19    0.0029    0.0148    0.0037   -0.0003   -0.0293    0.0065   -0.0234    0.0006
  Px  C   19    0.0375   -0.2597    0.0482    0.0033   -0.0246    0.0199   -0.0162   -0.1478
  Py  C   19   -0.0850    0.4921   -0.1381   -0.0113   -0.0148   -0.0338   -0.0127    0.3356
  Pz  C   19   -0.0110    0.0927   -0.0345   -0.0035    0.0304    0.0023    0.0139    0.0680
  S   H   20   -0.0041   -0.0166   -0.0017    0.0001    0.0261    0.0006    0.0161   -0.0121
  S   O   21   -0.0024   -0.0055    0.0028   -0.0024   -0.0173    0.0222   -0.0001    0.0033
  Px  O   21   -0.0307   -0.0027    0.0150   -0.0031   -0.0123    0.0274   -0.0013    0.0076
  Py  O   21    0.0415    0.0044   -0.0064   -0.0003    0.0024    0.0055    0.0001    0.0027
  Pz  O   21   -0.0261    0.0263    0.0007    0.0004    0.0392   -0.0091   -0.0012    0.0045
  S   H   22    0.0029    0.0154   -0.0003    0.0042    0.0410   -0.0355   -0.0006   -0.0017
  S   H   23   -0.0016    0.0031   -0.0055    0.0031    0.0171   -0.0302    0.0007   -0.0078
  S   O   24   -0.0019    0.0057    0.0030    0.0002   -0.0527   -0.0019   -0.1918   -0.0475
  Px  O   24    0.0156   -0.0089   -0.0068   -0.0004    0.0831    0.0029    0.3347    0.0872
  Py  O   24   -0.0112    0.0088    0.0029    0.0002   -0.0182   -0.0002   -0.0017    0.0073
  Pz  O   24   -0.0014    0.0009    0.0002    0.0000    0.0279    0.0013    0.0594    0.0121
  S   H   25    0.0045   -0.0122   -0.0066   -0.0004    0.0731    0.0022    0.2880    0.0714
  S   H   26    0.0015   -0.0060   -0.0042   -0.0003    0.1101    0.0045    0.4719    0.1248
  S   O   27    0.0066   -0.0040   -0.0105   -0.0018   -0.0770    0.0074    0.0019    0.0148
  Px  O   27    0.0154   -0.0126   -0.0101   -0.0020   -0.1001    0.0087   -0.0077    0.0149
  Py  O   27   -0.0164    0.0012    0.0044    0.0001    0.0135    0.0045    0.0053    0.0024
  Pz  O   27    0.0045   -0.0016    0.0074    0.0004    0.0920    0.0026    0.0029   -0.0156
  S   H   28   -0.0010    0.0069    0.0142    0.0024    0.1568   -0.0087    0.0059   -0.0266
  S   H   29   -0.0116    0.0045    0.0180    0.0027    0.1073   -0.0123   -0.0072   -0.0281
  S   O   30   -0.0005   -0.0007    0.0001    0.0000   -0.0194   -0.0006    0.0437   -0.0243
  Px  O   30   -0.0015   -0.0005   -0.0001   -0.0000   -0.0046   -0.0001    0.0031   -0.0008
  Py  O   30   -0.0004    0.0003    0.0003    0.0000    0.0093    0.0004   -0.0288    0.0170
  Pz  O   30   -0.0011   -0.0003    0.0002    0.0000   -0.0163   -0.0004    0.0430   -0.0251
  S   H   31    0.0004    0.0008   -0.0000   -0.0000    0.0269    0.0009   -0.0675    0.0384
  S   H   32    0.0004    0.0010   -0.0002   -0.0000    0.0315    0.0010   -0.0772    0.0436
  S   O   33   -0.0011   -0.0031    0.0012    0.0001   -0.0689   -0.0023    0.0954   -0.0443
  Px  O   33   -0.0102   -0.0029    0.0048    0.0004   -0.0307   -0.0009    0.0284   -0.0232
  Py  O   33    0.0058    0.0054   -0.0012   -0.0001    0.0553    0.0018   -0.0867    0.0494
  Pz  O   33   -0.0112   -0.0037   -0.0001   -0.0000   -0.0062   -0.0000    0.0231   -0.0124
  S   H   34    0.0014    0.0061   -0.0000    0.0000    0.0966    0.0034   -0.1552    0.0736
  S   H   35    0.0011    0.0042   -0.0035   -0.0003    0.1121    0.0038   -0.1515    0.0776
  S   O   36   -0.0002    0.0019    0.0001   -0.0001   -0.0477   -0.0018   -0.0614   -0.0012
  Px  O   36    0.0008   -0.0031   -0.0001    0.0001    0.0684    0.0025    0.0802    0.0015
  Py  O   36    0.0005   -0.0010   -0.0002   -0.0000   -0.0045   -0.0001   -0.0012    0.0023
  Pz  O   36   -0.0004    0.0019    0.0001   -0.0000   -0.0380   -0.0014   -0.0495   -0.0014
  S   H   37    0.0002   -0.0039   -0.0003    0.0001    0.0852    0.0034    0.1174    0.0038
  S   H   38    0.0002   -0.0021   -0.0000    0.0001    0.0732    0.0027    0.0953    0.0001
  S   O   39    0.0009   -0.0002    0.0014   -0.0217   -0.0003    0.0122   -0.0001    0.0018
  Px  O   39    0.0143   -0.0005    0.0032   -0.0486   -0.0006    0.0239   -0.0002    0.0034
  Py  O   39    0.0075   -0.0001    0.0015   -0.0223   -0.0002    0.0084   -0.0001    0.0011
  Pz  O   39    0.0040    0.0000    0.0011   -0.0177   -0.0002    0.0093   -0.0001    0.0012
  S   H   40   -0.0013    0.0003   -0.0012    0.0200    0.0004   -0.0136    0.0000   -0.0022
  S   H   41   -0.0023    0.0004   -0.0035    0.0568    0.0008   -0.0319    0.0002   -0.0046
  S   O   42    0.0002   -0.0000   -0.0002   -0.0003   -0.0001    0.0061   -0.0000    0.0010
  Px  O   42   -0.0006    0.0001    0.0000    0.0014    0.0002   -0.0068    0.0001   -0.0012
  Py  O   42   -0.0086   -0.0001   -0.0006    0.0013   -0.0003    0.0115   -0.0001    0.0020
  Pz  O   42    0.0012    0.0001    0.0001    0.0028    0.0002   -0.0068    0.0001   -0.0012
  S   H   43    0.0004   -0.0000    0.0003   -0.0003    0.0001   -0.0065    0.0000   -0.0010
  S   H   44   -0.0003    0.0002    0.0004   -0.0009    0.0003   -0.0113    0.0001   -0.0022
  S   O   45   -0.0025    0.0076    0.0016   -0.0000   -0.1025   -0.0038   -0.1356   -0.0127
  Px  O   45    0.0025    0.0054    0.0002   -0.0000   -0.0496   -0.0025   -0.1161   -0.0132
  Py  O   45    0.0035   -0.0069   -0.0029   -0.0002    0.0777    0.0034    0.1679    0.0257
  Pz  O   45   -0.0033    0.0033    0.0006    0.0001    0.0195    0.0006   -0.0099   -0.0083
  S   H   46    0.0037   -0.0115   -0.0026   -0.0000    0.1429    0.0058    0.2109    0.0167
  S   H   47    0.0010   -0.0107   -0.0025   -0.0000    0.1604    0.0062    0.2559    0.0318
  S   O   48    0.0008   -0.0005    0.0005   -0.0016   -0.0034    0.0277   -0.0004    0.0041
  Px  O   48    0.0007   -0.0005    0.0006   -0.0014   -0.0034    0.0271   -0.0005    0.0044
  Py  O   48   -0.0022    0.0003    0.0000    0.0015   -0.0000   -0.0068   -0.0000    0.0001
  Pz  O   48    0.0033    0.0017   -0.0014    0.0013    0.0061   -0.0223    0.0003   -0.0038
  S   H   49   -0.0007    0.0008   -0.0007    0.0019    0.0051   -0.0381    0.0005   -0.0058
  S   H   50   -0.0001    0.0008   -0.0007    0.0015    0.0047   -0.0370    0.0006   -0.0060
  S   O   51    0.0002    0.0005   -0.0009   -0.0002   -0.0877   -0.0031    0.0961   -0.0132
  Px  O   51   -0.0002    0.0007   -0.0017   -0.0003   -0.1699   -0.0060    0.1737   -0.0223
  Py  O   51    0.0025    0.0010   -0.0007   -0.0001    0.0067    0.0004   -0.0305    0.0204
  Pz  O   51    0.0011    0.0004    0.0001    0.0001    0.0654    0.0031   -0.0489   -0.0067
  S   H   52   -0.0002   -0.0011    0.0019    0.0004    0.2154    0.0083   -0.2194    0.0116
  S   H   53    0.0004    0.0000    0.0006    0.0001    0.1222    0.0044   -0.1637    0.0406
  S   O   54    0.0007    0.0020   -0.0027   -0.0007   -0.2195   -0.0055   -0.0363    0.0187
  Px  O   54   -0.0015    0.0033   -0.0005   -0.0004   -0.1921   -0.0052   -0.0941    0.0168
  Py  O   54    0.0024   -0.0034   -0.0025   -0.0002    0.0315    0.0021    0.0384    0.0089
  Pz  O   54    0.0019   -0.0010   -0.0006    0.0000    0.1180    0.0049   -0.0036   -0.0127
  S   H   55   -0.0009   -0.0024    0.0047    0.0011    0.3862    0.0104    0.0702   -0.0446
  S   H   56    0.0003   -0.0043    0.0014    0.0006    0.3023    0.0083    0.0934   -0.0180
  S   O   57    0.0001    0.0007   -0.0015   -0.0003   -0.1732   -0.0064    0.0986    0.0090
  Px  O   57    0.0003    0.0010   -0.0022   -0.0005   -0.2228   -0.0076    0.0717    0.0195
  Py  O   57   -0.0001   -0.0005    0.0010    0.0002    0.1487    0.0061   -0.1168   -0.0047
  Pz  O   57    0.0004    0.0007   -0.0014   -0.0003   -0.0903   -0.0022    0.0095    0.0040
  S   H   58   -0.0001   -0.0016    0.0032    0.0008    0.3532    0.0122   -0.1323   -0.0267
  S   H   59   -0.0001   -0.0008    0.0017    0.0004    0.2802    0.0117   -0.2133   -0.0146
  S   O   60   -0.0010    0.0022    0.0001   -0.0007   -0.0003    0.0009   -0.0012   -0.0024
  Px  O   60   -0.0024   -0.0010    0.0001   -0.0007   -0.0001    0.0011   -0.0007    0.0003
  Py  O   60   -0.0042    0.0004    0.0004   -0.0005    0.0001   -0.0001    0.0005    0.0006
  Pz  O   60   -0.0021   -0.0049   -0.0009    0.0008    0.0006   -0.0013    0.0021    0.0040
  S   H   61    0.0013   -0.0043   -0.0002    0.0009    0.0006   -0.0013    0.0023    0.0051
  S   H   62    0.0000   -0.0025   -0.0004    0.0011    0.0005   -0.0018    0.0022    0.0033
  S   O   63    0.0000   -0.0001    0.0001   -0.0002   -0.0009    0.0088   -0.0001    0.0015
  Px  O   63    0.0000   -0.0001    0.0001   -0.0002   -0.0010    0.0102   -0.0002    0.0017
  Py  O   63   -0.0001    0.0000    0.0000    0.0001    0.0001   -0.0015    0.0000   -0.0002
  Pz  O   63   -0.0000    0.0002   -0.0002    0.0003    0.0015   -0.0138    0.0002   -0.0022
  S   H   64   -0.0000    0.0002   -0.0001    0.0003    0.0018   -0.0184    0.0003   -0.0032
  S   H   65   -0.0000    0.0001   -0.0000    0.0002    0.0009   -0.0094    0.0001   -0.0016
  S   O   66   -0.0001   -0.0003    0.0023   -0.0008   -0.0054    0.0130   -0.0009    0.0045
  Px  O   66   -0.0012    0.0009    0.0016   -0.0001   -0.0016    0.0059   -0.0009    0.0034
  Py  O   66    0.0035    0.0000   -0.0040    0.0010    0.0062   -0.0133    0.0009   -0.0052
  Pz  O   66   -0.0007    0.0014    0.0003   -0.0002    0.0020    0.0010    0.0003    0.0009
  S   H   67    0.0003   -0.0007   -0.0034    0.0010    0.0060   -0.0174    0.0013   -0.0075
  S   H   68    0.0002    0.0008   -0.0026    0.0009    0.0076   -0.0170    0.0015   -0.0056
  S   O   69    0.0019    0.0038   -0.0045   -0.0006   -0.0380    0.0017    0.0265    0.0030
  Px  O   69    0.0303    0.0078   -0.0131   -0.0015   -0.0421    0.0044    0.0060    0.0131
  Py  O   69   -0.0132   -0.0029   -0.0039   -0.0005    0.0011    0.0014   -0.0129    0.0064
  Pz  O   69   -0.0062   -0.0038    0.0071    0.0008    0.0699   -0.0009   -0.0595   -0.0006
  S   H   70   -0.0014   -0.0065    0.0126    0.0015    0.0679   -0.0053   -0.0290   -0.0152
  S   H   71   -0.0029   -0.0048    0.0033    0.0004    0.0650   -0.0007   -0.0651    0.0023
  S   H   72    0.0041    0.0022   -0.0004   -0.0502   -0.0038    0.2337   -0.0018    0.0200
  S   H   73    0.0167    0.0001    0.0009    0.0114   -0.0003    0.0252   -0.0001    0.0014


              NET ATOMIC CHARGES AND DIPOLE CONTRIBUTIONS

  ATOM NO.   TYPE          CHARGE      No. of ELECS.   s-Pop       p-Pop       
    1          C           0.493527        3.5065     1.07605     2.43043
    2          O          -0.669158        6.6692     1.86524     4.80392
    3          N          -0.495065        5.4951     1.55755     3.93752
    4          H           0.370873        0.6291     0.62913
    5          C          -0.029918        4.0299     1.08661     2.94331
    6          H           0.169935        0.8301     0.83007
    7          C          -0.341125        4.3411     1.06030     3.28083
    8          H           0.178499        0.8215     0.82150
    9          H           0.168685        0.8313     0.83131
   10          C           0.045927        3.9541     1.07180     2.88227
   11          C          -0.171584        4.1716     1.09168     3.07990
   12          H           0.172194        0.8278     0.82781
   13          C          -0.163153        4.1632     1.09168     3.07147
   14          H           0.161253        0.8387     0.83875
   15          C          -0.207667        4.2077     1.09149     3.11618
   16          H           0.160923        0.8391     0.83908
   17          C          -0.165495        4.1655     1.08413     3.08136
   18          H           0.167070        0.8329     0.83293
   19          C          -0.184366        4.1844     1.09091     3.09346
   20          H           0.159757        0.8402     0.84024
   21          O          -0.844956        6.8450     1.83400     5.01096
   22          H           0.390360        0.6096     0.60964
   23          H           0.394327        0.6057     0.60567
   24          O          -0.746884        6.7469     1.84309     4.90379
   25          H           0.368052        0.6319     0.63195
   26          H           0.402543        0.5975     0.59746
   27          O          -0.765462        6.7655     1.83751     4.92795
   28          H           0.363023        0.6370     0.63698
   29          H           0.429675        0.5703     0.57032
   30          O          -0.768011        6.7680     1.82059     4.94743
   31          H           0.360966        0.6390     0.63903
   32          H           0.416349        0.5837     0.58365
   33          O          -0.759807        6.7598     1.79401     4.96580
   34          H           0.386383        0.6136     0.61362
   35          H           0.382701        0.6173     0.61730
   36          O          -0.829245        6.8292     1.79990     5.02934
   37          H           0.391453        0.6085     0.60855
   38          H           0.423250        0.5768     0.57675
   39          O          -0.865218        6.8652     1.84236     5.02285
   40          H           0.456527        0.5435     0.54347
   41          H           0.389016        0.6110     0.61098
   42          O          -0.790532        6.7905     1.80808     4.98245
   43          H           0.421384        0.5786     0.57862
   44          H           0.352959        0.6470     0.64704
   45          O          -0.779117        6.7791     1.81996     4.95915
   46          H           0.396839        0.6032     0.60316
   47          H           0.380563        0.6194     0.61944
   48          O          -0.737528        6.7375     1.84108     4.89645
   49          H           0.393639        0.6064     0.60636
   50          H           0.351968        0.6480     0.64803
   51          O          -0.853121        6.8531     1.85452     4.99861
   52          H           0.392538        0.6075     0.60746
   53          H           0.405480        0.5945     0.59452
   54          O          -0.771381        6.7714     1.79656     4.97482
   55          H           0.415133        0.5849     0.58487
   56          H           0.392371        0.6076     0.60763
   57          O          -0.811315        6.8113     1.84180     4.96951
   58          H           0.412193        0.5878     0.58781
   59          H           0.420362        0.5796     0.57964
   60          O          -0.823058        6.8231     1.81898     5.00407
   61          H           0.415641        0.5844     0.58436
   62          H           0.407241        0.5928     0.59276
   63          O          -0.787453        6.7875     1.80812     4.97933
   64          H           0.387063        0.6129     0.61294
   65          H           0.397783        0.6022     0.60222
   66          O          -0.719157        6.7192     1.79136     4.92779
   67          H           0.362146        0.6379     0.63785
   68          H           0.380534        0.6195     0.61947
   69          O          -0.779813        6.7798     1.83631     4.94350
   70          H           0.388999        0.6110     0.61100
   71          H           0.350151        0.6498     0.64985
   72          H           0.022352        0.9776     0.97765
   73          H           0.208982        0.7910     0.79102
 DIPOLE           X         Y         Z       TOTAL
 POINT-CHG.    22.307    -1.661    -9.645    24.360
 HYBRID         1.077    -0.465    -1.294     1.747
 SUM           23.384    -2.126   -10.939    25.903


          ATOMIC ORBITAL ELECTRON POPULATIONS

     Atom    s        px        py        pz   
    1  C   1.07605   0.82684   0.83132   0.77226
    2  O   1.86524   1.81289   1.46989   1.52115
    3  N   1.55755   1.13272   1.33489   1.46991
    4  H   0.62913
    5  C   1.08661   0.89308   0.94921   1.10101
    6  H   0.83007
    7  C   1.06030   1.19569   1.07369   1.01145
    8  H   0.82150
    9  H   0.83131
   10  C   1.07180   0.96339   0.94928   0.96960
   11  C   1.09168   1.03087   1.02768   1.02135
   12  H   0.82781
   13  C   1.09168   1.06767   1.01526   0.98854
   14  H   0.83875
   15  C   1.09149   1.02653   1.01537   1.07428
   16  H   0.83908
   17  C   1.08413   1.06868   1.02439   0.98830
   18  H   0.83293
   19  C   1.09091   1.02912   1.02740   1.03694
   20  H   0.84024
   21  O   1.83400   1.58196   1.90820   1.52080
   22  H   0.60964
   23  H   0.60567
   24  O   1.84309   1.50433   1.54626   1.85320
   25  H   0.63195
   26  H   0.59746
   27  O   1.83751   1.71442   1.45551   1.75801
   28  H   0.63698
   29  H   0.57032
   30  O   1.82059   1.80318   1.52755   1.61669
   31  H   0.63903
   32  H   0.58365
   33  O   1.79401   1.63179   1.66159   1.67242
   34  H   0.61362
   35  H   0.61730
   36  O   1.79990   1.71923   1.43632   1.87380
   37  H   0.60855
   38  H   0.57675
   39  O   1.84236   1.61714   1.46257   1.94314
   40  H   0.54347
   41  H   0.61098
   42  O   1.80808   1.70467   1.67264   1.60513
   43  H   0.57862
   44  H   0.64704
   45  O   1.81996   1.82587   1.66588   1.46740
   46  H   0.60316
   47  H   0.61944
   48  O   1.84108   1.50012   1.85570   1.54062
   49  H   0.60636
   50  H   0.64803
   51  O   1.85452   1.58959   1.68991   1.71911
   52  H   0.60746
   53  H   0.59452
   54  O   1.79656   1.63577   1.52477   1.81428
   55  H   0.58487
   56  H   0.60763
   57  O   1.84180   1.62510   1.70711   1.63730
   58  H   0.58781
   59  H   0.57964
   60  O   1.81898   1.41827   1.97039   1.61541
   61  H   0.58436
   62  H   0.59276
   63  O   1.80812   1.57275   1.91705   1.48954
   64  H   0.61294
   65  H   0.60222
   66  O   1.79136   1.71363   1.78639   1.42777
   67  H   0.63785
   68  H   0.61947
[...]
  
  S  H  62  -0.00000     0.00004     0.00000    -0.00001    -0.00001    -0.00039
  
  S  O  63  -0.00022    -0.00021     0.00185    -0.00000    -0.00000    -0.00018
 PX  O  63  -0.00020    -0.00021    -0.29380    -0.00000    -0.00000    -0.00020
 PY  O  63   0.00004     0.00011     0.91876     0.00000     0.00000    -0.00001
 PZ  O  63   0.00040     0.00042    -0.26371     0.00000     0.00000     0.00024
  
  S  H  64   0.00097     0.00046    -0.00015     0.00000     0.00000     0.00073
  
  S  H  65   0.00007     0.00024     0.00003     0.00000     0.00000     0.00027
  
  S  O  66   0.02001    -0.00024     0.00001    -0.00000     0.00000     0.00018
 PX  O  66   0.61971    -0.00002     0.00005     0.00000     0.00000    -0.00000
 PY  O  66   0.75979     0.00030    -0.00006     0.00000    -0.00000    -0.00024
 PZ  O  66   0.16687    -0.00016     0.00001     0.00001     0.00000     0.00004
  
  S  H  67   0.00188     0.00035    -0.00015    -0.00000    -0.00000    -0.00033
  
  S  H  68  -0.00110     0.00028     0.00003     0.00001    -0.00000    -0.00019
  
  S  O  69   0.00025    -0.00004    -0.00000    -0.00040     0.00000     0.00004
 PX  O  69   0.00071    -0.00010    -0.00000    -0.33560    -0.00000     0.00009
 PY  O  69   0.00021    -0.00003    -0.00000     0.92134    -0.00000     0.00003
 PZ  O  69  -0.00023     0.00004     0.00000    -0.19591    -0.00000    -0.00003
  
  S  H  70  -0.00071     0.00011     0.00000    -0.00002    -0.00000    -0.00016
  
  S  H  71  -0.00015     0.00004     0.00000     0.00021    -0.00000    -0.00002
  
  S  H  72   0.00001     0.07294    -0.00001     0.00000    -0.00015    -0.00350
  
  S  H  73  -0.00015    -0.00306    -0.00038    -0.00000    -0.00001    -0.00635




    ROOT NO.   91          92          93          94          95          96

           -10.04420    -9.71313    -9.69458    -9.68984    -9.53120    -9.26534
  
  
  S  C   1  -0.00109    -0.00116     0.00001    -0.00387    -0.00044     0.00187
 PX  C   1  -0.00170     0.00002     0.00011    -0.00587    -0.00014     0.00263
 PY  C   1  -0.00052     0.00037     0.00029     0.00111     0.00129    -0.00090
 PZ  C   1  -0.00065    -0.00213     0.00036     0.00049     0.00166    -0.00105
  
  S  O   2   0.00008     0.00091     0.00000     0.00052     0.00009    -0.00019
 PX  O   2   0.00051    -0.00012    -0.00005     0.00232    -0.00001    -0.00048
 PY  O   2   0.00040     0.00043    -0.00006     0.00118    -0.00025    -0.00005
 PZ  O   2   0.00009    -0.00068    -0.00015    -0.00127    -0.00070     0.00078
  
  S  N   3   0.00253     0.00015    -0.00008     0.01212     0.00049    -0.00336
 PX  N   3   0.00028    -0.00009    -0.00007     0.00220    -0.00018    -0.00012
 PY  N   3   0.00148     0.00031     0.00005     0.00947    -0.00063    -0.00047
 PZ  N   3  -0.00052     0.00071    -0.00005    -0.00645     0.00017    -0.00033
  
  S  H   4  -0.00663    -0.00039     0.00009    -0.03359     0.00036     0.00569
  
  S  C   5  -0.00089    -0.00101     0.00095    -0.00179     0.00762    -0.01443
 PX  C   5   0.00160    -0.00008    -0.00013     0.00562    -0.00045    -0.00236
 PY  C   5   0.00012     0.00039    -0.00129    -0.00227    -0.01321     0.02422
 PZ  C   5   0.00086    -0.00151    -0.00106     0.00116    -0.00833     0.01171
  
  S  H   6   0.00003     0.00238     0.00028     0.00090    -0.00192     0.00402
  
  S  C   7   0.00002     0.00028    -0.00484     0.00030    -0.00336     0.00748
 PX  C   7   0.00016    -0.00026     0.00231    -0.00027     0.00101    -0.00835
 PY  C   7   0.00023    -0.00012     0.00267     0.00057    -0.00546     0.02446
 PZ  C   7   0.00067     0.00022    -0.00372     0.00041    -0.00162     0.00762
  
  S  H   8   0.00038     0.00002     0.00153    -0.00065    -0.01109     0.01636
  
  S  H   9   0.00009    -0.00049     0.00867     0.00017    -0.00140     0.00325
  
  S  C  10   0.00047    -0.00006    -0.00039     0.00033     0.00286    -0.00491
 PX  C  10  -0.00329    -0.00006    -0.00002    -0.00011     0.09153    -0.26287
 PY  C  10   0.00643     0.00005     0.00025     0.00055    -0.16507     0.49973
 PZ  C  10   0.00204    -0.00004    -0.00018     0.00048    -0.04480     0.12838
  
  S  C  11   0.00009     0.00015    -0.00111     0.00003    -0.00052     0.00395
 PX  C  11   0.00016    -0.00011     0.00161     0.00020     0.05738    -0.06457
 PY  C  11  -0.00051    -0.00014    -0.00020    -0.00034    -0.11344     0.13403
 PZ  C  11   0.00010     0.00014    -0.00081    -0.00009    -0.03786     0.04286
  
  S  H  12  -0.00040    -0.00018     0.00214    -0.00004     0.00188    -0.00041
  
  S  C  13   0.00034    -0.00002     0.00023     0.00008    -0.00855     0.00985
 PX  C  13   0.00157    -0.00002    -0.00030     0.00002    -0.11323     0.07937
 PY  C  13  -0.00395     0.00001     0.00108     0.00003     0.25400    -0.17909
 PZ  C  13  -0.00094    -0.00002     0.00056     0.00001     0.05428    -0.04049
  
  S  H  14  -0.00057    -0.00001     0.00018    -0.00003     0.00960    -0.00921
  
  S  C  15   0.00017     0.00001    -0.00009     0.00020    -0.01498     0.00162
 PX  C  15  -0.00237    -0.00003     0.00010    -0.00032    -0.33175     0.06701
 PY  C  15   0.00412     0.00002     0.00006     0.00081     0.58922    -0.11355
 PZ  C  15   0.00066     0.00002    -0.00007     0.00008     0.12199    -0.02529
  
  S  H  16  -0.00050    -0.00001     0.00007     0.00002     0.00650    -0.00323
  
  S  C  17   0.00050     0.00003    -0.00016     0.00045    -0.00250    -0.00075
 PX  C  17   0.00335    -0.00001    -0.00016    -0.00012    -0.05726    -0.31615
 PY  C  17  -0.00403    -0.00005     0.00051     0.00091     0.11171     0.59376
 PZ  C  17  -0.00095     0.00002     0.00002     0.00015     0.02733     0.16377
  
  S  H  18  -0.00161     0.00000    -0.00001     0.00001     0.00030     0.00033
  
  S  C  19   0.00071    -0.00000    -0.00003     0.00038     0.01622     0.00602
 PX  C  19   0.00136     0.00000     0.00036    -0.00002    -0.28249    -0.14465
 PY  C  19  -0.00137    -0.00002    -0.00055     0.00042     0.52748     0.27514
 PZ  C  19  -0.00080    -0.00001    -0.00008    -0.00001     0.10531     0.05788
  
  S  H  20  -0.00152     0.00001    -0.00002     0.00010    -0.00379    -0.00264
  
  S  O  21  -0.00205     0.00001     0.00000     0.00994    -0.00729    -0.00505
 PX  O  21  -0.35699     0.00001    -0.00001     0.01627    -0.00544    -0.00525
 PY  O  21   0.91219     0.00000    -0.00000     0.00518     0.00169    -0.00072
 PZ  O  21  -0.19789     0.00000    -0.00002    -0.00469     0.01283     0.00780
  
  S  H  22  -0.00007    -0.00002    -0.00001    -0.01444     0.03690     0.01639
  
  S  H  23  -0.00064    -0.00001     0.00000    -0.03754     0.01064     0.01586
  
  S  O  24   0.00019     0.00000    -0.00005     0.00003     0.00868     0.00310
 PX  O  24  -0.00031    -0.00000     0.00008    -0.00005    -0.01290    -0.00461
 PY  O  24   0.00022    -0.00000    -0.00005     0.00004     0.01085     0.00504
 PZ  O  24   0.00009    -0.00000    -0.00002     0.00002     0.00500     0.00225
  
  S  H  25  -0.00073     0.00000     0.00018    -0.00009    -0.04397    -0.01598
  
  S  H  26  -0.00021    -0.00000     0.00006    -0.00003    -0.00937    -0.00159
  
  S  O  27  -0.00129     0.00000     0.00000     0.00096    -0.00544    -0.00056
 PX  O  27  -0.00146     0.00000     0.00001     0.00121    -0.00645    -0.00160
 PY  O  27  -0.00135     0.00000    -0.00000     0.00026    -0.00072     0.00047
 PZ  O  27   0.00110     0.00000    -0.00000     0.00075     0.00450    -0.00056
  
  S  H  28   0.00221    -0.00000    -0.00001    -0.00130     0.02076     0.00077
  
  S  H  29   0.00495    -0.00000    -0.00001    -0.00129     0.01270     0.00003
  
  S  O  30   0.00000     0.00000    -0.00000     0.00000     0.00016    -0.00009
 PX  O  30   0.00000    -0.00000    -0.00000     0.00000     0.00011    -0.00006
 PY  O  30   0.00000    -0.00000     0.00000     0.00000    -0.00011     0.00008
 PZ  O  30   0.00000     0.00000    -0.00000     0.00000     0.00009    -0.00006
  
  S  H  31  -0.00000    -0.00000     0.00000    -0.00000    -0.00036     0.00025
  
  S  H  32  -0.00001    -0.00000     0.00000    -0.00000    -0.00037     0.00023
  
  S  O  33   0.00003     0.00000    -0.00000     0.00001     0.00163    -0.00073
 PX  O  33   0.00005     0.00000    -0.00000     0.00001     0.00075    -0.00042
 PY  O  33  -0.00002    -0.00000    -0.00000    -0.00000    -0.00227     0.00110
 PZ  O  33   0.00001     0.00000     0.00000     0.00000     0.00054    -0.00063
  
  S  H  34  -0.00004    -0.00000    -0.00000    -0.00001    -0.00484     0.00244
  
  S  H  35  -0.00006    -0.00000     0.00000    -0.00001    -0.00500     0.00161
  
  S  O  36   0.00001    -0.00000    -0.00000     0.00001     0.00038     0.00014
 PX  O  36  -0.00002     0.00000     0.00000    -0.00001    -0.00055    -0.00024
 PY  O  36  -0.00002     0.00000     0.00000     0.00001    -0.00036    -0.00015
 PZ  O  36   0.00002    -0.00000    -0.00000     0.00001     0.00037     0.00016
  
  S  H  37  -0.00005     0.00000     0.00000    -0.00001    -0.00167    -0.00049
  
  S  H  38  -0.00001     0.00000     0.00000    -0.00002    -0.00032    -0.00009
  
  S  O  39   0.00004     0.00493    -0.00003     0.00012     0.00003    -0.00008
 PX  O  39   0.00009     0.00781    -0.00006     0.00029     0.00006    -0.00016
 PY  O  39   0.00005     0.00057     0.00002     0.00017     0.00003    -0.00008
 PZ  O  39   0.00003     0.00300    -0.00001     0.00011     0.00002    -0.00004
  
  S  H  40  -0.00003    -0.01063     0.00009    -0.00009    -0.00005     0.00008
  
  S  H  41  -0.00013    -0.01669     0.00004    -0.00038    -0.00020     0.00034
  
  S  O  42   0.00001     0.00033    -0.00002     0.00005     0.00004    -0.00008
 PX  O  42  -0.00001     0.63246    -0.00000    -0.00006    -0.00002     0.00004
 PY  O  42   0.00002     0.57770    -0.00003     0.00013     0.00007    -0.00013
 PZ  O  42  -0.00002     0.51552     0.00005    -0.00009    -0.00005     0.00009
  
  S  H  43  -0.00000     0.00020     0.00001    -0.00003    -0.00005     0.00009
  
  S  H  44  -0.00002     0.00063     0.00003    -0.00013    -0.00013     0.00027
  
  S  O  45   0.00008    -0.00000    -0.00001     0.00002     0.00278     0.00085
 PX  O  45   0.00006    -0.00000    -0.00000    -0.00000     0.00247     0.00053
 PY  O  45  -0.00011    -0.00000     0.00001    -0.00001    -0.00405    -0.00103
 PZ  O  45   0.00004    -0.00000    -0.00001     0.00000     0.00100     0.00098
  
  S  H  46  -0.00014     0.00000     0.00001    -0.00002    -0.00597    -0.00143
  
  S  H  47  -0.00020     0.00000     0.00001    -0.00003    -0.01074    -0.00243
  
  S  O  48  -0.00652     0.00001    -0.00000     0.00663    -0.00041    -0.00044
 PX  O  48  -0.00054     0.00001    -0.00000    -0.36974    -0.00026    -0.00034
 PY  O  48  -0.00551    -0.00001     0.00000     0.85769    -0.00005     0.00001
 PZ  O  48   0.01249    -0.00001     0.00000     0.35194     0.00090     0.00083
  
  S  H  49   0.02785    -0.00002     0.00000     0.00089     0.00111     0.00113
  
  S  H  50   0.00740    -0.00001     0.00000     0.00003     0.00068     0.00074
  
  S  O  51  -0.00001     0.00000    -0.00000     0.00002    -0.00020     0.00006
 PX  O  51  -0.00003     0.00000    -0.00000     0.00003    -0.00026     0.00009
 PY  O  51  -0.00002    -0.00000     0.00000     0.00001    -0.00013     0.00005
 PZ  O  51  -0.00001     0.00000    -0.00000     0.00001    -0.00012     0.00004
  
  S  H  52   0.00003    -0.00000     0.00000    -0.00003     0.00057    -0.00021
  
  S  H  53   0.00000    -0.00000     0.00000    -0.00002     0.00049    -0.00014
  
  S  O  54  -0.00010     0.00000    -0.00000     0.00009     0.00018     0.00013
 PX  O  54  -0.00001     0.00000    -0.00000     0.00003     0.00059     0.00024
 PY  O  54  -0.00011    -0.00000     0.00000     0.00005    -0.00145    -0.00029
 PZ  O  54  -0.00007     0.00000     0.00000     0.00007    -0.00010    -0.00006
  
  S  H  55   0.00017    -0.00000     0.00000    -0.00013     0.00085    -0.00022
  
  S  H  56   0.00008    -0.00000     0.00001    -0.00012    -0.00281    -0.00035
  
  S  O  57  -0.00003     0.00000    -0.00000     0.00003    -0.00014     0.00004
 PX  O  57  -0.00006     0.00000    -0.00000     0.00006    -0.00022     0.00006
 PY  O  57   0.00001    -0.00000     0.00000    -0.00001     0.00004    -0.00002
 PZ  O  57  -0.00005     0.00000    -0.00000     0.00004    -0.00021     0.00005
  
  S  H  58   0.00011    -0.00000     0.00000    -0.00008     0.00069    -0.00020
  
  S  H  59   0.00003    -0.00000     0.00000    -0.00002     0.00013    -0.00005
  
  S  O  60   0.00001     0.00002    -0.00120     0.00000    -0.00027     0.00045
 PX  O  60   0.00000    -0.00000    -0.04290     0.00001     0.00009    -0.00003
 PY  O  60   0.00000    -0.00000     0.96570     0.00000     0.00002    -0.00004
 PZ  O  60  -0.00002    -0.00002    -0.25581    -0.00001     0.00054    -0.00084
  
  S  H  61  -0.00002    -0.00004    -0.00001    -0.00000     0.00105    -0.00141
  
  S  H  62  -0.00002    -0.00002    -0.00001    -0.00001     0.00054    -0.00106
  
  S  O  63  -0.00044     0.00000     0.00000    -0.00214    -0.00003    -0.00005
 PX  O  63  -0.00045     0.00000     0.00000    -0.00248    -0.00004    -0.00005
 PY  O  63   0.00010    -0.00000    -0.00000    -0.00002     0.00001     0.00002
 PZ  O  63   0.00095    -0.00000    -0.00000     0.00279     0.00008     0.00010
  
  S  H  64   0.00118    -0.00000    -0.00000     0.00797     0.00011     0.00015
  
  S  H  65   0.00043    -0.00000    -0.00000     0.00287     0.00004     0.00005
  
  S  O  66  -0.00044     0.00000     0.00000     0.00362    -0.00081    -0.00125
 PX  O  66  -0.00015    -0.00000     0.00000     0.00131    -0.00030    -0.00072
 PY  O  66   0.00007    -0.00000     0.00000    -0.00425     0.00106     0.00137
 PZ  O  66   0.00036     0.00000    -0.00000     0.00017     0.00013    -0.00019
  
  S  H  67   0.00015    -0.00000    -0.00000    -0.00665     0.00138     0.00373
  
  S  H  68   0.00142    -0.00000    -0.00000    -0.00569     0.00171     0.00219
  
  S  O  69  -0.00030     0.00000    -0.00000     0.00024    -0.00363     0.00096
 PX  O  69  -0.00070     0.00000    -0.00000     0.00061    -0.00630     0.00165
 PY  O  69  -0.00021     0.00000     0.00000     0.00018    -0.00139    -0.00010
 PZ  O  69   0.00028    -0.00000     0.00000    -0.00022     0.00322    -0.00098
  
  S  H  70   0.00123    -0.00000     0.00001    -0.00076     0.01885    -0.00411
  
  S  H  71   0.00017    -0.00000     0.00001    -0.00016     0.00464    -0.00182
  
  S  H  72   0.00019     0.00034    -0.00004     0.00027     0.00003    -0.00017
  
  S  H  73  -0.00022     0.00019    -0.00043    -0.00058    -0.00062     0.00240




    ROOT NO.   97

            -9.26237
  
  
  S  C   1   0.00079
 PX  C   1   0.00042
 PY  C   1  -0.00282
 PZ  C   1  -0.00307
  
  S  O   2  -0.00021
 PX  O   2  -0.00015
 PY  O   2   0.00026
 PZ  O   2   0.00115
  
  S  N   3  -0.00113
 PX  N   3   0.00003
 PY  N   3   0.00012
 PZ  N   3   0.00038
  
  S  H   4   0.00069
  
  S  C   5  -0.01008
 PX  C   5   0.00048
 PY  C   5   0.01679
 PZ  C   5   0.01142
  
  S  H   6   0.00290
  
  S  C   7   0.00524
 PX  C   7  -0.00085
 PY  C   7   0.00419
 PZ  C   7  -0.00084
  
  S  H   8   0.01490
  
  S  H   9   0.00137
  
  S  C  10  -0.00206
 PX  C  10  -0.14177
 PY  C  10   0.25552
 PZ  C  10   0.06629
  
  S  C  11   0.03973
 PX  C  11  -0.31820
 PY  C  11   0.58368
 PZ  C  11   0.12872
  
  S  H  12  -0.00014
  
  S  C  13  -0.01672
 PX  C  13  -0.24100
 PY  C  13   0.54258
 PZ  C  13   0.14985
  
  S  H  14   0.01744
  
  S  C  15   0.00287
 PX  C  15  -0.07627
 PY  C  15   0.13171
 PZ  C  15   0.03287
  
  S  H  16   0.00448
  
  S  C  17   0.00155
 PX  C  17   0.04687
 PY  C  17  -0.09253
 PZ  C  17  -0.02302
  
  S  H  18   0.00027
  
  S  C  19  -0.00611
 PX  C  19   0.08977
 PY  C  19  -0.16969
 PZ  C  19  -0.03373
  
  S  H  20   0.00387
  
  S  O  21   0.00152
 PX  O  21   0.00215
 PY  O  21  -0.00080
 PZ  O  21  -0.00298
  
  S  H  22  -0.00585
  
  S  H  23  -0.00300
  
  S  O  24   0.00033
 PX  O  24  -0.00071
 PY  O  24   0.00001
 PZ  O  24   0.00008
  
  S  H  25  -0.00097
  
  S  H  26  -0.00073
  
  S  O  27   0.00014
 PX  O  27   0.00085
 PY  O  27   0.00052
 PZ  O  27  -0.00018
  
  S  H  28  -0.00164
  
  S  H  29  -0.00039
  
  S  O  30   0.00024
 PX  O  30   0.00007
 PY  O  30  -0.00020
 PZ  O  30   0.00017
  
  S  H  31  -0.00067
  
  S  H  32  -0.00059
  
  S  O  33   0.00130
 PX  O  33   0.00050
 PY  O  33  -0.00185
 PZ  O  33   0.00114
  
  S  H  34  -0.00517
  
  S  H  35  -0.00210
  
  S  O  36  -0.00014
 PX  O  36   0.00020
 PY  O  36   0.00010
 PZ  O  36  -0.00014
  
  S  H  37   0.00057
  
  S  H  38   0.00015
  
  S  O  39  -0.00016
 PX  O  39  -0.00023
 PY  O  39  -0.00009
 PZ  O  39  -0.00011
  
  S  H  40   0.00026
  
  S  H  41   0.00093
  
  S  O  42  -0.00008
 PX  O  42   0.00004
 PY  O  42  -0.00014
 PZ  O  42   0.00010
  
  S  H  43   0.00008
  
  S  H  44   0.00029
  
  S  O  45  -0.00057
 PX  O  45  -0.00055
 PY  O  45   0.00060
 PZ  O  45  -0.00022
  
  S  H  46   0.00149
  
  S  H  47   0.00207
  
  S  O  48   0.00011
 PX  O  48   0.00008
 PY  O  48   0.00002
 PZ  O  48  -0.00027
  
  S  H  49  -0.00031
  
  S  H  50  -0.00025
  
  S  O  51  -0.00005
 PX  O  51  -0.00005
 PY  O  51  -0.00013
 PZ  O  51  -0.00007
  
  S  H  52   0.00015
  
  S  H  53   0.00002
  
  S  O  54  -0.00015
 PX  O  54  -0.00014
 PY  O  54   0.00017
 PZ  O  54  -0.00005
  
  S  H  55   0.00019
  
  S  H  56   0.00057
  
  S  O  57  -0.00003
 PX  O  57  -0.00005
 PY  O  57   0.00001
 PZ  O  57  -0.00006
  
  S  H  58   0.00011
  
  S  H  59   0.00002
  
  S  O  60   0.00095
 PX  O  60  -0.00022
 PY  O  60  -0.00047
 PZ  O  60  -0.00147
  
  S  H  61  -0.00476
  
  S  H  62  -0.00167
  
  S  O  63   0.00001
 PX  O  63   0.00001
 PY  O  63  -0.00000
 PZ  O  63  -0.00002
  
  S  H  64  -0.00004
  
  S  H  65  -0.00001
  
  S  O  66   0.00037
 PX  O  66   0.00030
 PY  O  66  -0.00048
 PZ  O  66  -0.00003
  
  S  H  67  -0.00094
  
  S  H  68  -0.00081
  
  S  O  69  -0.00144
 PX  O  69  -0.00265
 PY  O  69  -0.00031
 PZ  O  69   0.00170
  
  S  H  70   0.00572
  
  S  H  71   0.00252
  
  S  H  72   0.00032
  
  S  H  73   0.00075

          BONDING CONTRIBUTION OF EACH M.O.

  1.8514  1.6481  1.9346  1.6592  1.6637  1.7371  1.7663  1.7182  0.0768  0.0442
  1.7066  1.6758  0.0062  1.6516  1.7347  1.6409  1.6400  1.5749  1.7069  0.0117
  1.6808  1.6475  1.6512  1.7149  0.0834  0.0157  0.0411  1.6233  1.6809  0.0597
  1.6966  1.6929  0.0626  1.9929  1.6707  1.7066  1.9971  1.6565  1.9965  1.5622
  1.6303  0.0018  1.9947  0.0005  1.9975  1.6611  1.9534  1.9964  0.0046  0.0171
  1.7527  0.0011  1.6279  1.6536  0.0001  1.6676  1.6201  1.6821  0.0026  1.6365
  1.5812  0.0025  0.0002  1.9926  1.9520  1.9446  1.9552  1.9473  1.9229  1.9500
  1.9967  1.9532  1.9480  1.9445  0.1561  0.0965  0.0912  1.0460  0.0156  0.0006
  0.0718  0.0499  0.0086  0.0947  0.0664  0.3033  0.0001  0.0007  0.0002  1.1520
  0.0083  0.0032  0.0009  0.0238  1.9663  2.0193  2.0090 -2.0173 -1.9875 -2.1374
 -1.7529 -1.9403 -1.7440 -1.9794 -1.7337 -1.7123 -1.7248 -1.7023 -1.8840 -1.7110
 -1.9528 -1.8292 -1.6756 -1.9367 -1.8955 -1.8175 -1.9397 -1.7449 -1.7678 -1.6986
 -1.9194 -1.7084 -1.9278 -1.7255 -1.7119 -1.8032 -1.9797 -1.9822 -1.8573 -1.8228
 -1.6917 -1.6955 -1.9584 -1.8763 -1.7527 -1.7098 -1.6976 -1.8243 -1.9180 -1.8568
 -1.7184 -1.9142 -1.7156 -1.7172 -1.9285 -1.9534 -1.9668 -1.7246 -1.7269 -1.7564
 -1.6953 -1.7907 -1.8101 -1.6708 -1.6835 -1.6647 -1.7181

           DATA FOR GRAPH WRITTEN TO DISK

 **********************
 *                    *
 * JOB ENDED NORMALLY *
 *                    *
 **********************



 TOTAL JOB TIME:             1.10 SECONDS

 == MOPAC DONE ==
